/*--------------------------------*- C++ -*----------------------------------*\
  =========                 |
  \\      /  F ield         | OpenFOAM: The Open Source CFD Toolbox
   \\    /   O peration     | Website:  https://openfoam.org
    \\  /    A nd           | Version:  13
     \\/     M anipulation  |
\*---------------------------------------------------------------------------*/
FoamFile
{
    format      ascii;
    class       volScalarField;
    location    "0.002";
    object      mag(U);
}
// * * * * * * * * * * * * * * * * * * * * * * * * * * * * * * * * * * * * * //

dimensions      [0 1 -1 0 0 0 0];

internalField   nonuniform List<scalar> 
12225
(
9.88359
9.68315
9.46004
9.2266
9.00933
8.81814
8.65154
8.50919
8.38719
8.28395
8.19508
8.11842
8.05121
7.99171
7.93792
7.89034
7.83621
7.82292
10.0699
10.1358
10.1242
10.0836
10.0389
9.99171
9.93944
9.88143
9.82075
9.75884
9.69785
9.63839
9.58133
9.52707
9.47524
9.42788
9.37942
9.34751
10.0043
10.0323
10.0586
10.0724
10.0782
10.0782
10.0723
10.0607
10.0452
10.0266
10.006
9.9838
9.96063
9.93693
9.91292
9.88951
9.8659
9.84428
9.998
10.0119
10.0366
10.0541
10.0657
10.0744
10.0802
10.0828
10.083
10.0813
10.0779
10.0734
10.0679
10.0617
10.0548
10.0478
10.0405
10.0336
9.99933
10.0093
10.0281
10.0425
10.0535
10.0636
10.0723
10.0789
10.0838
10.0875
10.0902
10.092
10.0931
10.0936
10.0937
10.0935
10.0934
10.0934
10.0003
10.0083
10.0229
10.0353
10.0454
10.0552
10.0641
10.0718
10.0782
10.0837
10.0885
10.0926
10.0962
10.0993
10.1021
10.1047
10.1074
10.1102
10.0004
10.0071
10.0192
10.0303
10.0398
10.0488
10.0575
10.0651
10.0719
10.078
10.0835
10.0885
10.0931
10.0973
10.1013
10.1051
10.1089
10.1129
10.0004
10.0059
10.0162
10.0263
10.0352
10.0437
10.0518
10.0593
10.066
10.0722
10.0779
10.0833
10.0882
10.0929
10.0974
10.1018
10.1061
10.1105
10.0004
10.005
10.0136
10.0229
10.0312
10.0392
10.0469
10.054
10.0606
10.0668
10.0725
10.0779
10.083
10.0879
10.0926
10.0972
10.1016
10.1061
10.0004
10.0043
10.0116
10.0198
10.0277
10.0351
10.0424
10.0493
10.0557
10.0617
10.0674
10.0728
10.0779
10.0828
10.0875
10.0921
10.0966
10.101
10.0003
10.0036
10.0099
10.0172
10.0245
10.0315
10.0384
10.045
10.0512
10.057
10.0626
10.0679
10.0729
10.0778
10.0825
10.087
10.0914
10.0958
10.0003
10.0032
10.0086
10.0152
10.0219
10.0285
10.0351
10.0414
10.0474
10.0531
10.0585
10.0637
10.0687
10.0734
10.078
10.0825
10.0868
10.0909
10.0003
10.0028
10.0075
10.0134
10.0196
10.0258
10.032
10.038
10.0438
10.0493
10.0546
10.0597
10.0646
10.0693
10.0738
10.0781
10.0823
10.0863
10.0002
10.0024
10.0064
10.0117
10.0174
10.0232
10.029
10.0347
10.0402
10.0456
10.0507
10.0556
10.0604
10.0649
10.0693
10.0735
10.0775
10.0814
10.0002
10.002
10.0055
10.0101
10.0153
10.0206
10.026
10.0314
10.0367
10.0418
10.0467
10.0515
10.0561
10.0605
10.0647
10.0688
10.0726
10.0764
10.0002
10.0017
10.0047
10.0087
10.0134
10.0183
10.0233
10.0283
10.0333
10.0382
10.0429
10.0475
10.0519
10.0561
10.0602
10.0641
10.0678
10.0713
10.0002
10.0015
10.0041
10.0076
10.0118
10.0163
10.0209
10.0256
10.0304
10.035
10.0395
10.0439
10.0481
10.0522
10.0561
10.0598
10.0633
10.0667
10.0001
10.0013
10.0036
10.0069
10.0107
10.0149
10.0192
10.0237
10.0281
10.0326
10.0369
10.0411
10.0451
10.049
10.0527
10.0563
10.0597
10.0629
10.0001
10.0013
10.0035
10.0066
10.0103
10.0143
10.0185
10.0228
10.0272
10.0314
10.0356
10.0397
10.0436
10.0473
10.0509
10.0544
10.0576
10.0607
10.0001
10.0013
10.0037
10.007
10.0108
10.015
10.0193
10.0237
10.0281
10.0324
10.0365
10.0406
10.0444
10.0481
10.0517
10.055
10.0582
10.0613
10.0002
10.0015
10.0041
10.0078
10.012
10.0165
10.021
10.0256
10.0301
10.0344
10.0387
10.0427
10.0466
10.0503
10.0538
10.0571
10.0603
10.0633
10.0002
10.0017
10.0047
10.009
10.0137
10.0186
10.0234
10.0282
10.0329
10.0374
10.0417
10.0458
10.0497
10.0534
10.0569
10.0603
10.0634
10.0664
10.0002
10.0018
10.0054
10.0105
10.0159
10.0212
10.0263
10.0314
10.0363
10.041
10.0454
10.0496
10.0535
10.0572
10.0608
10.0641
10.0673
10.0703
10.0001
10.0018
10.0063
10.0123
10.0183
10.0241
10.0297
10.0351
10.0402
10.045
10.0495
10.0539
10.0579
10.0617
10.0652
10.0685
10.0717
10.0746
9.9999
10.0016
10.0073
10.0143
10.0207
10.027
10.0334
10.0393
10.0448
10.0498
10.0544
10.0587
10.0627
10.0664
10.0698
10.073
10.0759
10.0787
9.99859
9.99915
10.0077
10.017
10.0242
10.0311
10.0382
10.0447
10.0504
10.0555
10.0601
10.0641
10.0677
10.0708
10.0736
10.076
10.0781
10.08
9.99496
9.99336
10.0071
10.0215
10.0319
10.0403
10.0476
10.0536
10.0584
10.0622
10.065
10.0671
10.0685
10.0693
10.0696
10.0695
10.069
10.0682
9.99482
10.0001
10.0165
10.0326
10.0454
10.0547
10.0603
10.0623
10.0618
10.0591
10.0549
10.0495
10.0432
10.0361
10.0285
10.0206
10.0125
10.0042
10.0407
10.091
10.0935
10.0777
10.0632
10.0495
10.0322
10.0106
9.98586
9.9593
9.93175
9.90379
9.87591
9.84846
9.82167
9.79569
9.77073
9.74685
9.94685
9.87454
9.76459
9.62618
9.48646
9.35865
9.24462
9.14325
9.05353
8.97445
8.9044
8.84208
8.78626
8.73603
8.69051
8.64908
8.61081
8.57541
0.0166376
0.0269359
0.0301517
0.0305863
0.0278183
0.022644
0.017725
0.0194017
0.0297288
0.0445747
0.0616582
0.0801367
0.0996432
0.11999
0.141067
0.162802
0.185135
0.208023
0.231442
0.255396
0.279925
0.305124
0.331111
0.357861
0.385186
0.412927
0.440865
0.468726
0.497251
0.528133
0.561735
0.596756
0.632919
0.669889
0.710651
0.75043
0.786626
0.815899
0.852004
0.890279
0.928658
0.967736
1.0071
1.04662
1.08622
1.12583
1.16541
1.20495
1.24443
1.28381
1.3231
1.36228
1.40135
1.44027
1.47904
1.51765
1.55607
1.5943
1.63229
1.67005
1.70754
1.74471
1.78156
1.81805
1.85415
1.88982
1.92502
1.95972
1.99388
2.02745
2.0604
2.09268
2.12425
2.15506
2.18506
2.21422
2.24247
2.26978
2.29608
2.32133
2.34549
2.3685
2.3903
2.41085
2.43009
2.44795
2.46438
2.4793
2.49265
2.50433
2.51429
2.52241
2.52859
2.53268
2.53457
2.53477
2.53322
2.52996
2.52498
2.51828
2.50982
2.49959
2.48759
2.47383
2.45826
2.44093
2.4218
2.40091
2.37827
2.35389
2.32779
2.30001
2.27058
2.23953
2.2069
2.17275
2.13713
2.10008
2.06169
2.02199
1.98107
1.939
1.89583
1.85165
1.80656
1.76061
1.71391
1.66655
1.61859
1.57013
1.52127
1.47208
1.42267
1.37312
1.32353
1.27398
1.22456
1.17534
1.1264
1.0778
1.02965
0.982001
0.934898
0.888384
0.842495
0.797261
0.752704
0.708836
0.665662
0.623175
0.581358
0.540187
0.499623
0.459619
0.420117
0.381047
0.34233
0.303877
0.265589
0.227357
0.189081
0.150639
0.111957
0.0731791
0.0356635
0.0204611
0.053617
0.0931162
0.134849
0.178446
0.224169
0.27228
0.323022
0.376506
0.432761
0.491269
0.552117
0.610115
0.673779
0.682715
0.0386568
0.0298363
0.0126424
0.00509036
0.0213495
0.0368199
0.0518825
0.0672787
0.083616
0.101222
0.120187
0.140464
0.161954
0.18456
0.208204
0.23284
0.258445
0.285021
0.312589
0.341176
0.370806
0.401491
0.433212
0.465989
0.499834
0.534743
0.571037
0.609089
0.648487
0.688367
0.727991
0.76781
0.808149
0.849143
0.88688
0.924929
0.966235
1.00926
1.04915
1.08733
1.12486
1.16193
1.19865
1.23509
1.27129
1.30727
1.34303
1.37857
1.41391
1.44901
1.4839
1.51855
1.55296
1.58711
1.621
1.6546
1.68789
1.72086
1.75349
1.78575
1.81762
1.84907
1.88007
1.9106
1.94064
1.97013
1.99906
2.02738
2.05508
2.0821
2.10843
2.13401
2.15881
2.1828
2.20594
2.22819
2.2495
2.26985
2.28919
2.30748
2.32467
2.34074
2.35563
2.36932
2.38176
2.39293
2.40276
2.41126
2.41838
2.42411
2.42847
2.43147
2.43316
2.43365
2.43304
2.43093
2.42724
2.42191
2.41491
2.40621
2.39581
2.38368
2.36982
2.35422
2.33688
2.31781
2.297
2.27447
2.25024
2.22432
2.19674
2.16753
2.13672
2.10436
2.07047
2.03512
1.99837
1.96025
1.92085
1.88022
1.83842
1.79554
1.75164
1.70681
1.66112
1.61467
1.56753
1.51981
1.47155
1.42286
1.37384
1.32456
1.27512
1.2256
1.17609
1.12667
1.07743
1.02843
0.979728
0.931408
0.88353
0.836156
0.789336
0.743104
0.69749
0.652513
0.608187
0.564516
0.521493
0.479104
0.437321
0.396113
0.355435
0.315233
0.275451
0.236032
0.196925
0.158117
0.119725
0.0823002
0.0485673
0.0343589
0.0579839
0.0952159
0.136296
0.179688
0.225313
0.273288
0.32358
0.376273
0.431528
0.489489
0.550238
0.613737
0.679831
0.747979
0.817775
0.885628
0.955928
0.997237
0.0408439
0.0190643
0.0172271
0.0375656
0.0588592
0.0790965
0.0983453
0.117032
0.135662
0.154694
0.174466
0.195191
0.216979
0.239874
0.263888
0.28902
0.315268
0.342632
0.371119
0.400729
0.431448
0.463242
0.49604
0.529703
0.56409
0.599125
0.634798
0.671088
0.707686
0.744037
0.779796
0.814974
0.849639
0.883698
0.916452
0.94871
0.982102
1.01642
1.05019
1.08331
1.11604
1.14847
1.18066
1.21266
1.2445
1.27619
1.30774
1.33915
1.37043
1.40156
1.43254
1.46337
1.49402
1.5245
1.55477
1.58483
1.61465
1.6442
1.6735
1.70249
1.73116
1.75947
1.78741
1.81495
1.84206
1.8687
1.89486
1.92048
1.94556
1.97004
1.9939
2.01709
2.03958
2.06135
2.08234
2.10253
2.12188
2.14033
2.15787
2.17444
2.19002
2.20455
2.21801
2.23037
2.24157
2.25158
2.2604
2.26797
2.27429
2.27932
2.28306
2.28551
2.28664
2.2864
2.28473
2.28157
2.27685
2.27056
2.26267
2.25314
2.24196
2.22913
2.21463
2.19844
2.18059
2.16107
2.13987
2.11702
2.09252
2.06641
2.0387
2.00943
1.97862
1.94632
1.91257
1.87743
1.84093
1.80314
1.76413
1.72394
1.68265
1.64034
1.59707
1.55294
1.508
1.46235
1.41606
1.36922
1.32191
1.27422
1.22622
1.178
1.12964
1.08122
1.03283
0.984542
0.936433
0.888564
0.840996
0.79379
0.747004
0.700693
0.654903
0.609668
0.565009
0.520945
0.477488
0.434641
0.3924
0.350759
0.309713
0.269262
0.229428
0.190291
0.152066
0.115351
0.0819344
0.0577713
0.056669
0.0800262
0.114195
0.152693
0.193639
0.236527
0.281246
0.327903
0.376744
0.428004
0.48177
0.538139
0.597206
0.659047
0.723676
0.791004
0.860818
0.932594
1.00587
1.07802
1.15267
1.21098
0.0259747
0.0201993
0.0452923
0.0714047
0.0960536
0.11916
0.141004
0.161957
0.182425
0.202814
0.223482
0.244711
0.2667
0.289577
0.313414
0.338242
0.364064
0.390863
0.418606
0.447238
0.47668
0.506826
0.537531
0.568617
0.599908
0.63127
0.662617
0.693884
0.724933
0.755564
0.785665
0.815265
0.844465
0.873285
0.901675
0.929936
0.95852
0.987431
1.01633
1.04512
1.0738
1.10238
1.13087
1.15929
1.18764
1.21592
1.24416
1.27232
1.30042
1.32844
1.35637
1.3842
1.41193
1.43951
1.46696
1.49424
1.52134
1.54823
1.5749
1.60132
1.62747
1.65331
1.67883
1.704
1.72878
1.75316
1.77709
1.80054
1.8235
1.84591
1.86775
1.88898
1.90956
1.92947
1.94867
1.9671
1.98476
2.00158
2.01755
2.03261
2.04674
2.05989
2.07202
2.08311
2.09311
2.102
2.10975
2.11632
2.12167
2.1258
2.12867
2.13025
2.1305
2.12937
2.12681
2.12278
2.11727
2.11023
2.10165
2.09152
2.07979
2.06647
2.05155
2.03503
2.0169
1.99716
1.97581
1.95288
1.92838
1.90232
1.87473
1.84565
1.8151
1.78311
1.74975
1.71504
1.67905
1.64183
1.60344
1.56394
1.52339
1.48186
1.43944
1.39619
1.35219
1.30754
1.26229
1.21652
1.17031
1.12376
1.07692
1.02988
0.98273
0.935536
0.888378
0.84133
0.794459
0.747828
0.701496
0.65552
0.609959
0.564868
0.520294
0.47628
0.432862
0.39008
0.347978
0.306617
0.266092
0.226563
0.188335
0.152042
0.11907
0.0926411
0.0792779
0.0852618
0.107474
0.13852
0.174039
0.212176
0.2522
0.293838
0.337047
0.381911
0.428558
0.477175
0.528002
0.581257
0.637064
0.695511
0.756663
0.820557
0.887171
0.95639
1.02799
1.1015
1.17652
1.25113
1.32885
1.3962
0.0129583
0.0480876
0.0787713
0.106891
0.13312
0.157724
0.181025
0.203335
0.224967
0.24624
0.267462
0.288894
0.310749
0.33317
0.356252
0.380033
0.404513
0.429655
0.455397
0.481648
0.508297
0.535218
0.562271
0.589321
0.616255
0.642993
0.669497
0.695751
0.721714
0.747333
0.772585
0.79751
0.822186
0.846689
0.871089
0.895528
0.920151
0.944981
0.969934
0.994957
1.02002
1.04512
1.07024
1.09537
1.12052
1.14568
1.17085
1.196
1.22114
1.24626
1.27133
1.29635
1.3213
1.34617
1.37092
1.39556
1.42004
1.44437
1.46851
1.49243
1.51612
1.53954
1.56268
1.58551
1.60798
1.63009
1.65178
1.67305
1.69384
1.71414
1.73391
1.75311
1.77171
1.78968
1.80698
1.82357
1.83942
1.8545
1.86877
1.88218
1.89471
1.90632
1.91697
1.92663
1.93527
1.94284
1.94933
1.95468
1.95889
1.96189
1.96368
1.96421
1.96344
1.96133
1.95785
1.95295
1.94663
1.93886
1.9296
1.91886
1.90661
1.89284
1.87754
1.8607
1.84232
1.82242
1.80098
1.77804
1.75359
1.72765
1.70025
1.67143
1.64122
1.60964
1.57673
1.54256
1.50717
1.47061
1.43293
1.39421
1.3545
1.31387
1.27239
1.23015
1.18722
1.14366
1.09956
1.05499
1.01003
0.964759
0.91924
0.873559
0.827792
0.782018
0.736312
0.690749
0.6454
0.600334
0.555621
0.511332
0.467551
0.424364
0.381872
0.340195
0.299501
0.260036
0.222199
0.186679
0.154732
0.12865
0.112204
0.109498
0.121244
0.143863
0.173167
0.206431
0.242202
0.279757
0.318751
0.359055
0.400662
0.443636
0.488092
0.534185
0.582085
0.631983
0.684094
0.738611
0.795659
0.855321
0.91765
0.982661
1.05031
1.12047
1.19293
1.26726
1.34321
1.41932
1.49913
1.57138
0.0423059
0.085675
0.116738
0.144676
0.170879
0.19566
0.219278
0.241956
0.263903
0.285346
0.306507
0.327595
0.348782
0.370199
0.391925
0.413999
0.436416
0.459137
0.482095
0.505205
0.52837
0.551487
0.574465
0.597227
0.619725
0.641942
0.663888
0.685587
0.707053
0.728295
0.749327
0.770188
0.790933
0.811628
0.832345
0.853164
0.874154
0.89534
0.916706
0.938225
0.959877
0.981643
1.00351
1.02546
1.04749
1.06957
1.09171
1.11389
1.13609
1.15831
1.18053
1.20273
1.22488
1.24699
1.26902
1.29095
1.31277
1.33445
1.35597
1.3773
1.39843
1.41932
1.43996
1.4603
1.48033
1.50002
1.51932
1.53824
1.55671
1.57472
1.59223
1.60922
1.62564
1.64147
1.65667
1.67121
1.68505
1.69817
1.71051
1.72206
1.73277
1.74262
1.75156
1.75957
1.7666
1.77264
1.77764
1.78156
1.78438
1.78607
1.78659
1.7859
1.78397
1.78076
1.77624
1.77039
1.76318
1.7546
1.74462
1.73323
1.72041
1.70614
1.69043
1.67327
1.65465
1.63458
1.61307
1.59012
1.56574
1.53997
1.51281
1.4843
1.45447
1.42337
1.39101
1.35747
1.32277
1.28697
1.25013
1.21231
1.17357
1.13399
1.09363
1.05256
1.01088
0.968643
0.925931
0.882821
0.839389
0.795714
0.751873
0.707952
0.664037
0.620218
0.576589
0.533251
0.49031
0.447889
0.406136
0.365237
0.325445
0.287109
0.250749
0.217153
0.187565
0.163869
0.148592
0.144118
0.151142
0.168027
0.192063
0.220862
0.252797
0.286872
0.322505
0.359376
0.397323
0.436294
0.476302
0.517411
0.559725
0.603368
0.648489
0.695256
0.743845
0.79444
0.847232
0.902388
0.960029
1.02023
1.08305
1.14847
1.21645
1.28687
1.35951
1.43403
1.51027
1.58714
1.66818
1.743
0.0814595
0.127682
0.157776
0.184348
0.209381
0.23326
0.256188
0.2783
0.299713
0.320558
0.340975
0.361102
0.381059
0.400942
0.420813
0.440701
0.460602
0.480489
0.500312
0.520014
0.53953
0.558803
0.577787
0.596456
0.614808
0.632863
0.650657
0.668237
0.685645
0.702918
0.720091
0.737203
0.7543
0.771433
0.788653
0.806012
0.823551
0.841292
0.859239
0.877379
0.8957
0.914184
0.932818
0.951584
0.970468
0.989455
1.00853
1.02768
1.04688
1.06612
1.08538
1.10466
1.12391
1.14313
1.16229
1.18139
1.20038
1.21926
1.23799
1.25656
1.27493
1.2931
1.31102
1.32867
1.34602
1.36307
1.37975
1.39607
1.41197
1.42744
1.44243
1.45694
1.47092
1.48434
1.49717
1.50938
1.52093
1.5318
1.54197
1.55137
1.55999
1.5678
1.57478
1.58086
1.58603
1.59027
1.59353
1.59579
1.59701
1.59716
1.5962
1.5941
1.59084
1.58639
1.58071
1.57378
1.56558
1.5561
1.54531
1.53319
1.51975
1.50495
1.4888
1.47129
1.45244
1.43221
1.41063
1.38773
1.36349
1.33794
1.31112
1.28303
1.25372
1.22322
1.19156
1.1588
1.12499
1.09018
1.05441
1.01776
0.980287
0.942064
0.903165
0.863678
0.823684
0.78326
0.742495
0.701481
0.660312
0.619087
0.577918
0.536932
0.496272
0.456112
0.416663
0.378182
0.341015
0.305624
0.272655
0.243015
0.217943
0.199011
0.187887
0.185762
0.192722
0.207668
0.228882
0.254679
0.283723
0.315067
0.348077
0.382338
0.417594
0.453699
0.490585
0.528234
0.566679
0.605979
0.646223
0.687521
0.730002
0.773809
0.819098
0.866035
0.914793
0.965544
1.01846
1.07369
1.13134
1.1915
1.25419
1.31942
1.38713
1.4572
1.52945
1.60362
1.67961
1.75658
1.83806
1.91394
0.123161
0.171605
0.200293
0.224921
0.248081
0.270296
0.291751
0.312528
0.332671
0.352235
0.371286
0.389898
0.40814
0.426071
0.443732
0.461145
0.478311
0.495217
0.511838
0.528147
0.544116
0.559725
0.574968
0.589852
0.604402
0.618659
0.632672
0.646498
0.660189
0.673797
0.687363
0.700933
0.714547
0.728247
0.742073
0.75606
0.770237
0.784622
0.79922
0.81403
0.82904
0.84424
0.859615
0.875149
0.890825
0.906627
0.922537
0.938538
0.954612
0.970741
0.986905
1.00308
1.01926
1.03541
1.05152
1.06756
1.08351
1.09935
1.11505
1.1306
1.14597
1.16113
1.17606
1.19075
1.20514
1.21924
1.233
1.2464
1.25942
1.27203
1.28419
1.29589
1.30709
1.31778
1.32791
1.33746
1.3464
1.3547
1.36235
1.3693
1.37551
1.38098
1.38566
1.38953
1.39256
1.39472
1.39597
1.3963
1.39566
1.39403
1.3914
1.38771
1.38295
1.37709
1.3701
1.36197
1.35268
1.3422
1.33052
1.31764
1.30353
1.28819
1.27161
1.2538
1.23474
1.21445
1.19292
1.17018
1.14623
1.12109
1.0948
1.06737
1.03884
1.00925
0.978642
0.947064
0.914569
0.881215
0.847065
0.81219
0.776668
0.740585
0.704036
0.667133
0.629992
0.592736
0.555507
0.51847
0.481818
0.44578
0.410636
0.376746
0.344574
0.31472
0.287945
0.2652
0.247573
0.236164
0.231808
0.234799
0.244749
0.260745
0.281637
0.306313
0.333838
0.363484
0.394714
0.427139
0.460485
0.494573
0.529284
0.564555
0.600358
0.636703
0.673624
0.711179
0.749445
0.788519
0.828507
0.869536
0.91174
0.955266
1.00027
1.04691
1.09534
1.14575
1.19827
1.25305
1.31018
1.36974
1.43178
1.49626
1.56317
1.63237
1.70373
1.77704
1.85228
1.92875
2.00995
2.08584
0.165143
0.215649
0.242828
0.265281
0.286196
0.306272
0.325717
0.344593
0.362905
0.380653
0.397849
0.414517
0.430683
0.446375
0.461616
0.47642
0.490794
0.504736
0.518245
0.531317
0.543953
0.556161
0.567959
0.579376
0.590453
0.601238
0.611789
0.622165
0.632422
0.642615
0.652789
0.662992
0.673261
0.683635
0.694146
0.704822
0.715685
0.72675
0.738023
0.749504
0.761187
0.773063
0.785117
0.797336
0.809703
0.8222
0.834809
0.84751
0.860286
0.873116
0.885979
0.898856
0.911726
0.924568
0.93736
0.950081
0.96271
0.975223
0.9876
0.999816
1.01185
1.02368
1.03529
1.04664
1.05771
1.06849
1.07896
1.08907
1.09882
1.10818
1.11712
1.12562
1.13367
1.14122
1.14826
1.15476
1.16071
1.16606
1.17081
1.17492
1.17837
1.18114
1.18319
1.18451
1.18507
1.18484
1.1838
1.18192
1.17918
1.17555
1.17101
1.16553
1.1591
1.15168
1.14326
1.13383
1.12336
1.11185
1.09928
1.08564
1.07092
1.05511
1.03823
1.02025
1.00119
0.981057
0.959856
0.937607
0.914327
0.890043
0.864786
0.838591
0.811501
0.783567
0.754848
0.725409
0.695325
0.664684
0.633584
0.60214
0.570492
0.538796
0.507243
0.476065
0.445533
0.415975
0.387787
0.361453
0.337556
0.316768
0.299833
0.287506
0.280452
0.279092
0.283506
0.293407
0.308225
0.327233
0.349683
0.374885
0.402252
0.431307
0.461665
0.493032
0.525182
0.557948
0.591209
0.624879
0.658909
0.693274
0.727972
0.763021
0.798456
0.83433
0.870711
0.907678
0.945326
0.983758
1.02309
1.06346
1.10498
1.14782
1.1921
1.23801
1.28568
1.33528
1.38692
1.44076
1.49688
1.55536
1.61624
1.67949
1.7451
1.81296
1.88297
1.95494
2.02895
2.10438
2.18467
2.25976
0.205896
0.258444
0.284161
0.304405
0.322928
0.340613
0.357727
0.374339
0.390439
0.406002
0.421006
0.435439
0.449299
0.462588
0.475316
0.487491
0.499121
0.510215
0.520784
0.530841
0.540406
0.549502
0.558163
0.566428
0.574345
0.581967
0.589353
0.596558
0.603641
0.610652
0.617642
0.624652
0.631722
0.638885
0.64617
0.653602
0.661198
0.668973
0.676931
0.685073
0.693396
0.701891
0.710546
0.719349
0.728282
0.737328
0.74647
0.755685
0.764955
0.774261
0.783581
0.792893
0.802179
0.811414
0.820581
0.829656
0.838619
0.847448
0.856123
0.864623
0.872927
0.881015
0.888867
0.896461
0.903779
0.910801
0.917507
0.923877
0.929892
0.935532
0.940779
0.945613
0.950016
0.953968
0.95745
0.960444
0.962931
0.96489
0.966304
0.967152
0.967417
0.967078
0.966116
0.964511
0.962246
0.959299
0.955653
0.951285
0.946178
0.940313
0.933673
0.92624
0.917999
0.908935
0.899033
0.888285
0.87668
0.864212
0.850875
0.836666
0.821586
0.805637
0.788826
0.771165
0.752669
0.733357
0.713256
0.692402
0.670833
0.648602
0.62577
0.602411
0.578614
0.554484
0.53015
0.505762
0.481499
0.457579
0.434259
0.411848
0.390715
0.371284
0.354045
0.339529
0.328286
0.320816
0.317526
0.318657
0.324255
0.334151
0.348003
0.36537
0.385775
0.408744
0.433842
0.460685
0.488946
0.518344
0.548651
0.579678
0.611273
0.643311
0.675697
0.708355
0.741234
0.774295
0.807523
0.840908
0.874462
0.908208
0.94218
0.976422
1.01099
1.04596
1.08141
1.11741
1.15409
1.19152
1.22986
1.26919
1.30967
1.35144
1.39463
1.43939
1.48587
1.53421
1.58455
1.63701
1.69168
1.74861
1.80787
1.86945
1.93333
1.99941
2.06762
2.13783
2.21017
2.28405
2.36285
2.4365
0.244312
0.298943
0.323323
0.341439
0.357567
0.372776
0.387406
0.401559
0.415233
0.428394
0.441006
0.453039
0.464474
0.475298
0.485513
0.495118
0.504123
0.512541
0.520389
0.527689
0.534468
0.540758
0.546598
0.552031
0.557106
0.561877
0.566397
0.57072
0.574898
0.57898
0.583012
0.587034
0.591082
0.595186
0.599373
0.603663
0.608073
0.612611
0.617285
0.622094
0.627038
0.632107
0.637293
0.642581
0.647956
0.6534
0.658895
0.664421
0.669958
0.675486
0.680985
0.686432
0.691809
0.697093
0.702267
0.707306
0.712194
0.716909
0.721435
0.725752
0.729842
0.733689
0.737275
0.740585
0.743605
0.746317
0.748708
0.750763
0.752469
0.753814
0.754782
0.755365
0.755547
0.755318
0.754666
0.75358
0.752047
0.750058
0.7476
0.744665
0.741238
0.737312
0.732875
0.727915
0.722425
0.716393
0.70981
0.702667
0.694953
0.686664
0.677791
0.668332
0.658285
0.647647
0.636421
0.624612
0.612229
0.599283
0.585793
0.571781
0.557274
0.542307
0.526926
0.511185
0.49515
0.478902
0.46254
0.446181
0.429967
0.414068
0.398684
0.384046
0.370426
0.35813
0.347489
0.338856
0.332581
0.328989
0.328355
0.330866
0.336615
0.345581
0.357647
0.37262
0.390251
0.410265
0.432373
0.456304
0.481811
0.508655
0.536619
0.565514
0.595178
0.625472
0.656274
0.687483
0.719012
0.750785
0.782737
0.814819
0.846989
0.879212
0.911469
0.943747
0.97604
1.00836
1.0407
1.07311
1.10562
1.13825
1.17106
1.20411
1.23747
1.27119
1.30538
1.3401
1.37548
1.41162
1.44861
1.4866
1.5257
1.56604
1.60777
1.65102
1.69593
1.74265
1.79127
1.84195
1.89473
1.94973
2.00697
2.06646
2.12818
2.19208
2.2581
2.32615
2.39638
2.46825
2.54506
2.61672
0.279592
0.336378
0.359589
0.375721
0.389539
0.402297
0.41442
0.426048
0.437204
0.447868
0.458003
0.467577
0.476565
0.484948
0.492716
0.499868
0.506411
0.512357
0.517726
0.522543
0.526835
0.530637
0.533985
0.536924
0.539498
0.541753
0.543739
0.545501
0.547084
0.548533
0.549888
0.551183
0.552448
0.553711
0.554993
0.556315
0.557684
0.559113
0.560603
0.562155
0.563764
0.565426
0.567127
0.568856
0.570596
0.572329
0.574037
0.575701
0.5773
0.578817
0.580229
0.581516
0.582658
0.583635
0.584427
0.585016
0.585384
0.585513
0.585389
0.584996
0.584319
0.583347
0.582067
0.580467
0.57854
0.576274
0.573663
0.570701
0.567378
0.563692
0.559637
0.55521
0.550408
0.545229
0.539672
0.533735
0.527419
0.520725
0.513654
0.506209
0.498393
0.49021
0.481667
0.472773
0.463534
0.453961
0.444071
0.433879
0.423403
0.412671
0.401711
0.390567
0.37928
0.367908
0.356517
0.345187
0.334016
0.323116
0.312624
0.302695
0.293514
0.285283
0.278229
0.272592
0.268618
0.266542
0.266576
0.268887
0.273583
0.280707
0.290243
0.302113
0.316196
0.332345
0.350396
0.370182
0.391536
0.414305
0.438342
0.463515
0.4897
0.516784
0.544666
0.573253
0.602459
0.632199
0.662397
0.692987
0.723912
0.755112
0.786524
0.81809
0.849761
0.881494
0.913252
0.945003
0.97672
1.00838
1.03997
1.07147
1.10286
1.13417
1.16538
1.19651
1.22756
1.25856
1.28954
1.32054
1.3516
1.38277
1.41408
1.44562
1.47745
1.50964
1.54228
1.57545
1.60925
1.64379
1.67916
1.71549
1.7529
1.79151
1.83145
1.87286
1.91586
1.96058
2.00714
2.05566
2.10622
2.1589
2.21374
2.27077
2.32997
2.39132
2.45478
2.52028
2.58801
2.65745
2.7318
2.80098
0.31121
0.370229
0.392458
0.406785
0.418432
0.428831
0.438496
0.44762
0.456263
0.464428
0.472092
0.479227
0.485809
0.491819
0.497249
0.502096
0.506366
0.510069
0.513223
0.515848
0.517971
0.51962
0.52083
0.521635
0.522073
0.522184
0.522007
0.521578
0.520936
0.520115
0.51915
0.518065
0.516888
0.515639
0.514333
0.512983
0.511597
0.51018
0.508731
0.50725
0.50573
0.504161
0.502531
0.500826
0.499028
0.49712
0.495082
0.492896
0.490542
0.488
0.485248
0.482267
0.479035
0.475534
0.471744
0.467649
0.46323
0.458472
0.453364
0.447889
0.442038
0.435801
0.42917
0.422137
0.414697
0.406845
0.398577
0.389891
0.380786
0.371263
0.361322
0.350967
0.340201
0.32903
0.317462
0.305504
0.293171
0.280474
0.267433
0.25407
0.240414
0.226503
0.212388
0.198136
0.183836
0.169612
0.15564
0.142168
0.129546
0.118269
0.109005
0.102574
0.0998128
0.101309
0.107164
0.116983
0.13011
0.145871
0.1637
0.18317
0.203973
0.225885
0.248745
0.272436
0.296868
0.321975
0.347701
0.374002
0.40084
0.428181
0.455998
0.48426
0.512939
0.542011
0.571448
0.601224
0.631313
0.661688
0.69232
0.72318
0.754239
0.785469
0.816842
0.848328
0.879899
0.91152
0.943163
0.974802
1.00642
1.038
1.06951
1.10092
1.13221
1.16335
1.19435
1.22517
1.25581
1.28628
1.31657
1.34667
1.37659
1.40635
1.43596
1.46544
1.4948
1.52409
1.55334
1.58259
1.61187
1.64126
1.6708
1.70055
1.73058
1.76097
1.7918
1.82314
1.8551
1.88777
1.92125
1.95565
1.9911
2.02769
2.06555
2.10482
2.14559
2.18801
2.2322
2.27825
2.32624
2.37627
2.42838
2.48262
2.53897
2.59743
2.65798
2.72058
2.78544
2.85204
2.92351
2.98982
0.338865
0.400223
0.421655
0.434354
0.443982
0.452146
0.459449
0.466145
0.472333
0.478045
0.483282
0.488035
0.492292
0.496042
0.499279
0.502
0.504209
0.505914
0.507126
0.507862
0.508141
0.507983
0.507417
0.506468
0.505167
0.503541
0.501622
0.499437
0.497014
0.494382
0.491563
0.488578
0.485443
0.482171
0.478775
0.475261
0.471635
0.467896
0.46404
0.460063
0.455956
0.451708
0.447307
0.442739
0.437988
0.433036
0.427869
0.422471
0.416823
0.410909
0.404711
0.398213
0.391398
0.38425
0.376759
0.368909
0.360694
0.352105
0.343137
0.333788
0.324057
0.313947
0.303462
0.292611
0.281404
0.26986
0.257995
0.245839
0.233424
0.220793
0.208003
0.195125
0.182256
0.169523
0.157095
0.145204
0.134159
0.124367
0.116347
0.110695
0.108006
0.108722
0.112996
0.120656
0.131303
0.144457
0.159662
0.176541
0.1948
0.214216
0.23462
0.255884
0.277913
0.300633
0.323987
0.347929
0.372423
0.397436
0.422941
0.448915
0.475337
0.502186
0.529446
0.557098
0.585124
0.613509
0.642235
0.671282
0.700634
0.730271
0.760173
0.790318
0.820685
0.851251
0.881994
0.912889
0.943912
0.975039
1.00624
1.03749
1.06877
1.10004
1.13129
1.16248
1.19359
1.22459
1.25548
1.28621
1.31678
1.34719
1.37741
1.40743
1.43723
1.46679
1.49611
1.5252
1.55405
1.58266
1.61103
1.63919
1.66713
1.69488
1.72246
1.74989
1.7772
1.80443
1.83161
1.85879
1.88601
1.91334
1.94082
1.96851
1.99649
2.02482
2.05358
2.08285
2.11272
2.14327
2.1746
2.20683
2.24004
2.27435
2.30989
2.34674
2.38504
2.42489
2.46642
2.50971
2.55486
2.60195
2.65106
2.7022
2.7554
2.81068
2.868
2.92739
2.98903
3.05244
3.12064
3.18369
0.362653
0.426362
0.447153
0.458384
0.466134
0.472177
0.477206
0.481539
0.485327
0.488644
0.491525
0.493983
0.496024
0.497647
0.49885
0.499634
0.499999
0.499951
0.499496
0.498642
0.497402
0.495791
0.493826
0.491525
0.488911
0.486002
0.48282
0.479388
0.475724
0.47185
0.467784
0.463542
0.459138
0.454581
0.449883
0.445049
0.440085
0.434994
0.429776
0.424432
0.418963
0.413368
0.407646
0.401798
0.395826
0.389731
0.383523
0.377207
0.370796
0.364301
0.35774
0.351132
0.344503
0.337887
0.331321
0.324853
0.318535
0.312431
0.30661
0.301148
0.296133
0.29165
0.287799
0.284673
0.282371
0.280989
0.280611
0.281318
0.283173
0.286226
0.290509
0.296038
0.30281
0.310807
0.319999
0.330345
0.341798
0.354305
0.367811
0.382263
0.397607
0.413794
0.430772
0.448502
0.466938
0.486047
0.505797
0.526156
0.5471
0.568606
0.590648
0.613207
0.636263
0.659799
0.683798
0.708247
0.733127
0.758426
0.784128
0.810219
0.836682
0.863507
0.890674
0.918168
0.945976
0.974079
1.00246
1.0311
1.05998
1.08908
1.11838
1.14785
1.17747
1.20722
1.23708
1.26701
1.29698
1.32699
1.35699
1.38696
1.41686
1.44669
1.4764
1.50598
1.5354
1.56463
1.59367
1.62247
1.65105
1.67941
1.7075
1.73535
1.76292
1.79022
1.81724
1.84398
1.87046
1.89669
1.92267
1.9484
1.97393
1.99926
2.02442
2.04944
2.07434
2.09917
2.12397
2.14878
2.17365
2.19862
2.22377
2.24914
2.27481
2.30083
2.32728
2.35423
2.38176
2.40996
2.43893
2.46873
2.49949
2.5313
2.56425
2.59847
2.63405
2.6711
2.70974
2.75005
2.79213
2.83605
2.88188
2.92969
2.9795
3.0313
3.08513
3.14099
3.19911
3.25897
3.32356
3.38301
0.383424
0.44953
0.469776
0.479601
0.48549
0.489395
0.492117
0.49405
0.495409
0.496314
0.496839
0.497028
0.4969
0.496472
0.495749
0.494734
0.493427
0.491828
0.48994
0.487764
0.485306
0.482574
0.479578
0.476333
0.472853
0.469157
0.465264
0.461195
0.456968
0.452605
0.448127
0.443557
0.438916
0.434226
0.42951
0.424792
0.420099
0.415459
0.4109
0.406453
0.402155
0.398043
0.394159
0.390547
0.387258
0.384343
0.381861
0.379871
0.378435
0.377612
0.37746
0.378039
0.379405
0.381611
0.384704
0.388726
0.393708
0.399674
0.406639
0.414605
0.423568
0.433513
0.444419
0.456255
0.46899
0.482584
0.496994
0.512181
0.528097
0.544701
0.56195
0.579799
0.598211
0.617146
0.636569
0.656446
0.676748
0.697443
0.718511
0.739924
0.761666
0.783718
0.806062
0.828688
0.851583
0.874739
0.898147
0.921798
0.945687
0.96981
0.994162
1.01874
1.04354
1.06855
1.09377
1.11921
1.14485
1.1707
1.19675
1.22299
1.24942
1.27603
1.30282
1.32976
1.35687
1.38414
1.41154
1.43906
1.4667
1.49443
1.52225
1.55013
1.57805
1.606
1.63396
1.6619
1.68981
1.71766
1.74541
1.77307
1.80059
1.82796
1.85515
1.88213
1.9089
1.93544
1.96171
1.98772
2.01345
2.03893
2.06411
2.08901
2.11362
2.13794
2.16196
2.18571
2.20919
2.23241
2.25539
2.27815
2.30071
2.3231
2.34533
2.36744
2.38947
2.41146
2.43343
2.45545
2.47755
2.49979
2.52222
2.54489
2.56788
2.59122
2.61501
2.6393
2.66417
2.68969
2.71594
2.74303
2.77101
2.8
2.83008
2.86135
2.89392
2.92788
2.96332
3.00035
3.03905
3.07949
3.12175
3.16589
3.21195
3.25994
3.30993
3.36192
3.41613
3.47207
3.53262
3.58809
0.400794
0.469162
0.488792
0.497146
0.501118
0.50284
0.503228
0.502758
0.501709
0.500254
0.498505
0.496532
0.494375
0.492061
0.489601
0.487
0.484257
0.481369
0.478334
0.475154
0.471832
0.468376
0.464796
0.461111
0.457341
0.453513
0.449659
0.445814
0.442015
0.438301
0.434724
0.431334
0.428193
0.425358
0.422894
0.420868
0.419352
0.418422
0.418155
0.418628
0.419913
0.422083
0.425204
0.429335
0.43453
0.44083
0.448269
0.456869
0.466642
0.477589
0.489697
0.502947
0.51731
0.532749
0.549222
0.566679
0.58507
0.604338
0.624425
0.645276
0.666829
0.689028
0.711818
0.735143
0.758949
0.783187
0.807809