/*--------------------------------*- C++ -*----------------------------------*\
  =========                 |
  \\      /  F ield         | OpenFOAM: The Open Source CFD Toolbox
   \\    /   O peration     | Website:  https://openfoam.org
    \\  /    A nd           | Version:  13
     \\/     M anipulation  |
\*---------------------------------------------------------------------------*/
FoamFile
{
    format      ascii;
    class       volScalarField;
    location    "100";
    object      epsilon;
}
// * * * * * * * * * * * * * * * * * * * * * * * * * * * * * * * * * * * * * //

dimensions      [0 2 -3 0 0 0 0];

internalField   nonuniform List<scalar> 
12225
(
285.369
271.176
258.848
245.053
233.873
224.648
218.329
214.18
214.121
215.282
218.391
222.075
229.098
233.834
242.292
247.851
257.536
261.534
52.5904
92.93
108.358
116.239
126.188
138.11
153.765
170.925
191.921
211.699
235.918
256.113
281.919
300.136
326.265
341.341
367.186
385.739
20.5321
35.2896
45.2913
51.1975
56.12
60.3838
65.3828
70.3981
76.9876
83.8952
92.0734
100.047
108.828
117.827
126.334
136.751
143.859
157.294
16.0181
19.547
24.2542
27.8291
30.7952
33.2201
35.5037
37.6812
39.8688
42.3204
44.7091
47.6255
50.0722
53.5144
55.8723
59.8519
62.0791
66.7821
15.0417
15.7242
17.4426
19.1676
20.7514
22.1732
23.4024
24.6141
25.6267
26.7997
27.7228
28.9804
29.8498
31.231
32.064
33.5663
34.3743
36.1078
14.7902
14.8272
15.2602
15.894
16.6062
17.345
17.9901
18.6666
19.2063
19.8344
20.296
20.9135
21.3254
21.952
22.3331
22.9822
23.3297
24.0733
14.7657
14.6151
14.6433
14.7319
14.9469
15.2407
15.5174
15.8436
16.11
16.4294
16.6684
16.9774
17.1913
17.4945
17.6872
17.9951
18.1595
18.5153
14.7687
14.5865
14.4665
14.3809
14.3717
14.3954
14.4477
14.5466
14.6341
14.7567
14.8535
14.9831
15.0768
15.2096
15.2968
15.4346
15.5079
15.6766
14.768
14.5909
14.435
14.2963
14.1856
14.106
14.042
14.0109
13.9864
13.9864
13.9897
14.0026
14.016
14.0447
14.0627
14.1006
14.1183
14.1785
14.7666
14.594
14.432
14.2821
14.1429
14.0222
13.9119
13.8204
13.7383
13.672
13.613
13.567
13.5226
13.4927
13.4581
13.4421
13.4111
13.4122
14.7659
14.5945
14.4321
14.2803
14.1361
14.0033
13.8782
13.7645
13.6583
13.5632
13.4741
13.396
13.3209
13.2576
13.1935
13.1433
13.0869
13.0493
14.7657
14.5943
14.4321
14.2799
14.1353
13.9998
13.8714
13.7518
13.6384
13.5336
13.434
13.343
13.2558
13.1773
13.1006
13.0334
12.9656
12.9087
14.7657
14.5941
14.432
14.2794
14.1349
13.9989
13.8698
13.7484
13.6331
13.5248
13.4218
13.3255
13.2336
13.1482
13.0661
12.9906
12.9172
12.8506
14.7657
14.594
14.4318
14.2791
14.1346
13.9983
13.8691
13.7472
13.6315
13.5222
13.4183
13.3202
13.2269
13.1388
13.0549
12.9758
12.9002
12.8292
14.7657
14.5938
14.4317
14.2787
14.1342
13.9977
13.8686
13.7464
13.6307
13.521
13.417
13.3185
13.2248
13.136
13.0516
12.9715
12.8953
12.8229
14.7657
14.5938
14.4316
14.2785
14.1339
13.9973
13.8681
13.7458
13.63
13.5203
13.4162
13.3175
13.2237
13.1348
13.0502
12.9699
12.8934
12.8208
14.7657
14.5937
14.4315
14.2783
14.1337
13.997
13.8677
13.7453
13.6294
13.5196
13.4155
13.3167
13.2229
13.1338
13.0492
12.9687
12.8922
12.8194
14.7657
14.5937
14.4314
14.2782
14.1335
13.9968
13.8674
13.745
13.6291
13.5192
13.415
13.3161
13.2222
13.1331
13.0484
12.9679
12.8913
12.8184
14.7657
14.5937
14.4314
14.2782
14.1335
13.9967
13.8673
13.7449
13.6289
13.519
13.4147
13.3158
13.2219
13.1327
13.048
12.9674
12.8908
12.8179
14.7657
14.5937
14.4314
14.2782
14.1336
13.9968
13.8675
13.745
13.6291
13.5191
13.415
13.316
13.2222
13.133
13.0483
12.9677
12.8911
12.8182
14.7657
14.5937
14.4315
14.2784
14.1338
13.9971
13.8678
13.7454
13.6295
13.5197
13.4156
13.3168
13.2231
13.1341
13.0496
12.9693
12.8931
12.8205
14.7657
14.5937
14.4316
14.2785
14.1341
13.9975
13.8685
13.7465
13.6313
13.5222
13.4192
13.3216
13.2296
13.1422
13.0599
12.9816
12.908
12.8376
14.7658
14.5937
14.4318
14.2788
14.1354
14.0003
13.8743
13.7562
13.6467
13.544
13.4492
13.36
13.2781
13.2005
13.1297
13.0618
13.0008
12.9408
14.766
14.5928
14.4328
14.2846
14.1517
14.0328
13.9301
13.8391
13.7615
13.6923
13.6342
13.5812
13.5377
13.4961
13.4636
13.4297
13.4061
13.3769
14.7638
14.5939
14.4611
14.3622
14.3052
14.2824
14.2866
14.3025
14.3315
14.3661
14.4108
14.4511
14.5004
14.5408
14.5922
14.63
14.6834
14.7162
14.7565
14.6946
14.763
14.9288
15.2012
15.4868
15.7788
16.0483
16.3123
16.5471
16.7819
16.9864
17.2
17.3814
17.5822
17.7453
17.9408
18.0877
14.9626
15.4483
16.6086
17.7505
18.7837
19.6584
20.4346
21.1002
21.7253
22.2746
22.8278
23.3203
23.8487
24.3125
24.8392
25.2874
25.8271
26.2653
16.3037
21.0376
25.2023
27.9781
30.0176
31.5944
33.0084
34.2885
35.5828
36.8358
38.1864
39.5027
40.9572
42.3356
43.895
45.3413
47.0371
48.5015
30.0104
47.5415
55.2893
59.1139
62.0527
64.8452
67.9595
71.33
75.0559
79.0006
83.2398
87.569
92.0991
96.6133
101.234
105.726
110.248
114.616
165.73
160.166
155.116
149.876
144.891
140.134
136.094
132.613
129.771
127.469
125.801
124.511
123.787
123.255
123.239
123.358
123.633
124.164
3.5799
2.24936
3.3549
4.33325
5.21789
6.02297
6.74944
7.36224
7.78027
7.83463
7.17951
7.0916
7.17069
7.19879
7.01159
6.31256
5.97164
6.38534
7.04425
7.70482
8.91527
42.1224
49.3315
55.576
62.651
70.4353
78.9797
88.2207
98.1645
108.726
119.898
131.584
143.773
156.364
169.348
182.627
196.204
209.986
223.989
238.13
252.436
266.832
281.357
295.942
310.628
325.351
340.154
354.981
369.873
384.78
399.74
414.707
429.716
444.723
459.756
474.778
489.812
504.823
519.829
534.802
549.749
564.653
579.507
594.306
609.027
623.674
638.21
652.665
666.989
681.238
695.347
709.394
723.299
737.168
750.9
764.622
778.216
791.828
805.32
818.836
832.17
845.428
858.299
870.832
882.724
895.02
914.802
928.587
942.598
958.101
973.641
989.672
1004.92
1021.55
1037.22
1053.48
1069.69
1085.82
1101.82
1117.47
1132.58
1146.57
1158.6
1166.6
1165.02
1177.87
1207.71
1209.25
1236.66
1231.97
1257.87
1262.31
1264.53
1284.12
1279.25
1285.61
1299.44
1298.04
1296.49
1303.1
1297.2
1293.15
1285.47
1275.62
1263.58
1249.42
1233.08
1214.58
1193.84
1171.03
1146.2
1119.54
1091.26
1061.42
1029.67
996.821
963.029
928.582
893.757
858.655
823.514
789.229
755.145
721.853
696.562
675.351
654.889
634.759
614.972
595.625
576.715
558.401
540.437
522.734
505.794
489.608
473.87
458.646
443.989
429.967
416.652
404.009
391.984
380.555
369.735
359.492
349.805
340.649
332.007
323.84
316.131
308.812
301.911
295.192
289.026
282.315
276.897
268.886
262.598
241.851
7.93499
4.8708
4.60988
4.84973
5.29362
5.85116
6.49088
7.19149
7.9476
8.79572
9.82748
10.8725
11.9623
13.116
14.2412
15.4371
17.1875
19.3601
22.0318
25.51
30.3282
37.2645
41.7993
46.1092
50.6217
55.3542
60.303
65.4304
70.711
76.1197
81.6431
87.2612
92.9661
98.7422
104.586
110.486
116.441
122.442
128.493
134.587
140.729
146.916
153.156
159.43
165.742
172.085
178.464
184.872
191.311
197.777
204.27
210.786
217.325
223.882
230.456
237.041
243.638
250.24
256.846
263.45
270.051
276.642
283.221
289.784
296.325
302.84
309.323
315.773
322.184
328.559
334.892
341.188
347.438
353.652
359.819
365.948
372.028
378.07
384.057
389.995
395.863
401.67
407.404
413.118
418.895
424.993
431.58
437.448
443.452
449.621
455.745
461.833
467.797
473.81
479.616
485.394
491.03
496.502
501.775
506.778
511.445
515.656
519.319
522.383
525.245
530.092
535.801
539.078
544.11
545.804
551.672
553.651
556.571
558.03
561.638
563.54
565.667
564.789
565.342
567.101
565.574
564.165
561.785
558.559
554.607
549.896
544.414
538.143
531.052
523.152
514.42
504.903
494.647
483.691
472.012
459.789
447.088
434.003
420.624
407.017
393.258
379.522
365.773
352.045
339.614
328.148
317.116
306.345
295.818
285.564
275.592
265.942
256.587
247.288
238.25
229.581
221.204
213.133
205.379
197.952
190.877
184.154
177.766
171.701
165.957
160.522
155.385
150.535
145.962
141.65
137.593
133.765
130.183
126.766
123.651
120.542
117.989
115.175
115.121
115.815
14.3303
7.87231
6.80818
6.71923
6.99982
7.4991
8.17567
9.03092
10.081
11.342
12.7933
14.3815
16.0799
17.8858
19.8132
21.9187
24.1931
26.7418
29.5655
32.7165
36.2294
40.016
43.7715
47.5757
51.496
55.5386
59.6401
63.8011
68.047
72.3782
76.7908
81.277
85.8321
90.4516
95.1382
99.8835
104.684
109.538
114.442
119.396
124.398
129.446
134.539
139.673
144.848
150.061
155.312
160.599
165.921
171.276
176.663
182.079
187.524
192.994
198.488
204.004
209.538
215.088
220.65
226.222
231.801
237.381
242.96
248.533
254.096
259.645
265.174
270.681
276.16
281.609
287.022
292.397
297.728
303.014
308.248
313.428
318.547
323.604
328.592
333.512
338.359
343.142
347.868
352.563
357.254
361.965
366.65
371.16
375.633
380.06
384.402
388.647
392.781
396.821
400.728
404.523
408.18
411.691
415.038
418.207
421.182
423.958
426.561
429.076
431.708
434.717
437.695
440.195
442.832
444.963
447.59
449.352
451.182
452.73
454.478
455.72
456.721
456.822
456.918
457.039
456.26
455.162
453.5
451.25
448.428
445.004
440.959
436.268
430.913
424.891
418.203
410.871
402.924
394.395
385.317
375.769
365.813
355.516
344.943
334.149
323.194
312.158
301.106
290.162
279.72
269.77
260.153
250.788
241.661
232.786
224.176
215.848
207.795
199.959
192.377
185.088
177.981
171.13
164.544
158.213
152.165
146.399
140.91
135.69
130.739
126.047
121.607
117.411
113.451
109.716
106.201
102.89
99.7872
96.8603
94.1607
91.5842
89.3635
87.1175
86.2111
86.1535
21.5899
11.279
9.41686
9.04092
9.20605
9.68242
10.3925
11.3133
12.4394
13.7627
15.285
17.0103
18.9105
20.9713
23.1948
25.6045
28.152
30.8155
33.6278
36.6141
39.7848
43.11
46.5409
50.0673
53.6855
57.3867
61.1916
65.1019
69.1047
73.1963
77.3747
81.6262
85.9433
90.3167
94.7522
99.2531
103.819
108.449
113.14
117.891
122.699
127.563
132.48
137.449
142.468
147.536
152.651
157.811
163.015
168.262
173.55
178.878
184.243
189.645
195.08
200.547
206.043
211.565
217.11
222.676
228.257
233.852
239.454
245.06
250.665
256.264
261.851
267.421
272.968
278.487
283.971
289.414
294.81
300.152
305.432
310.645
315.782
320.839
325.808
330.687
335.473
340.17
344.782
349.317
353.78
358.166
362.449
366.598
370.633
374.555
378.346
382.001
385.515
388.889
392.116
395.202
398.14
400.93
403.571
406.061
408.404
410.614
412.721
414.779
416.855
418.978
421.02
422.89
424.693
426.345
427.984
429.346
430.597
431.689
432.675
433.435
433.803
433.673
433.535
433.145
432.292
431.062
429.371
427.185
424.454
421.166
417.296
412.819
407.72
401.992
395.637
388.67
381.117
373.011
364.393
355.321
345.854
336.051
325.972
315.676
305.235
294.739
284.271
273.934
263.89
254.171
244.736
235.557
226.63
217.966
209.578
201.475
193.659
186.111
178.842
171.86
165.135
158.676
152.469
146.467
140.722
135.224
129.975
124.972
120.216
115.7
111.419
107.367
103.537
99.9221
96.5148
93.3071
90.2978
87.4706
84.8462
82.3867
80.1971
78.1491
76.7046
76.1675
29.1767
15.003
12.2712
11.5965
11.6361
12.0728
12.7865
13.7327
14.8952
16.2674
17.8455
19.6225
21.5849
23.7175
26.006
28.4381
30.9978
33.6759
36.4768
39.4083
42.4743
45.6676
48.9766
52.3934
55.9135
59.5342
63.257
67.0805
71.0002
75.0106
79.1076
83.2923
87.564
91.922
96.3673
100.895
105.502
110.186
114.946
119.778
124.68
129.651
134.689
139.791
144.956
150.182
155.467
160.81
166.21
171.664
177.171
182.731
188.34
193.997
199.7
205.447
211.236
217.063
222.925
228.819
234.741
240.687
246.651
252.629
258.614
264.601
270.584
276.554
282.505
288.429
294.318
300.163
305.955
311.685
317.344
322.922
328.409
333.798
339.079
344.247
349.297
354.227
359.038
363.73
368.3
372.74
377.036
381.173
385.152
388.968
392.619
396.096
399.399
402.528
405.485
408.274
410.897
413.356
415.656
417.803
419.803
421.668
423.419
425.084
426.685
428.221
429.653
430.961
432.16
433.25
434.251
435.087
435.783
436.318
436.605
436.638
436.478
436.084
435.489
434.625
433.406
431.82
429.817
427.363
424.399
420.905
416.848
412.205
406.955
401.091
394.611
387.529
379.866
371.654
362.936
353.764
344.192
334.28
324.094
313.71
303.209
292.675
282.19
271.84
261.717
251.857
242.262
232.927
223.859
215.07
206.57
198.37
190.471
182.868
175.564
168.561
161.844
155.41
149.249
143.34
137.687
132.248
127.044
122.07
117.329
112.817
108.53
104.465
100.617
96.9813
93.5456
90.311
87.2738
84.4247
81.7714
79.3018
77.0666
75.0355
73.3917
72.3985
36.6438
18.8004
15.2019
14.2176
14.1261
14.5042
15.1985
16.1413
17.3042
18.6741
20.2433
22.0039
23.9455
26.0551
28.3187
30.7229
33.2565
35.9122
38.6881
41.5853
44.6051
47.7459
51.0047
54.3786
57.8655
61.4639
65.1734
68.9928
72.9204
76.954
81.0924
85.3348
89.6806
94.1289
98.6786
103.327
108.073
112.912
117.844
122.865
127.974
133.167
138.443
143.8
149.235
154.747
160.334
165.994
171.725
177.526
183.395
189.331
195.331
201.395
207.52
213.704
219.944
226.237
232.58
238.97
245.401
251.869
258.368
264.893
271.436
277.991
284.55
291.103
297.642
304.157
310.638
317.073
323.452
329.763
335.993
342.13
348.162
354.078
359.867
365.519
371.025
376.381
381.581
386.622
391.496
396.196
400.71
405.03
409.148
413.064
416.77
420.265
423.547
426.619
429.483
432.145
434.609
436.881
438.966
440.872
442.607
444.181
445.608
446.902
448.074
449.124
450.047
450.836
451.481
451.996
452.439
452.713
452.746
452.543
452.213
451.72
451.028
450.12
448.985
447.579
445.855
443.78
441.31
438.405
435.023
431.128
426.688
421.673
416.062
409.842
403.012
395.58
387.566
379
369.922
360.382
350.439
340.162
329.628
318.917
308.112
297.294
286.539
275.921
265.505
255.331
245.415
235.77
226.407
217.341
208.582
200.139
192.017
184.213
176.729
169.561
162.703
156.147
149.882
143.894
138.177
132.71
127.485
122.468
117.671
113.094
108.735
104.593
100.666
96.9513
93.4388
90.1307
87.0216
84.1053
81.385
78.858
76.5516
74.4686
72.6973
71.3595
43.7414
22.5055
18.0637
16.7641
16.5361
16.8437
17.5019
18.422
19.5635
20.9064
22.4397
24.1546
26.0425
28.0935
30.2973
32.6437
35.1245
37.7337
40.4681
43.327
46.3102
49.4176
52.6487
56.0029
59.4799
63.0793
66.8014
70.6458
74.6122
78.7001
82.9093
87.2391
91.6892
96.2587
100.947
105.751
110.671
115.703
120.845
126.096
131.452
136.912
142.473
148.133
153.889
159.74
165.684
171.719
177.843
184.055
190.352
196.734
203.199
209.745
216.37
223.072
229.848
236.694
243.608
250.586
257.622
264.711
271.848
279.024
286.234
293.467
300.715
307.967
315.213
322.44
329.637
336.79
343.885
350.907
357.842
364.675
371.39
377.973
384.41
390.687
396.794
402.718
408.453
413.989
419.318
424.43
429.315
433.964
438.37
442.529
446.437
450.091
453.489
456.634
459.53
462.182
464.596
466.778
468.734
470.473
472.001
473.328
474.462
475.414
476.189
476.787
477.232
477.525
477.607
477.472
477.253
476.844
476.225
475.426
474.455
473.305
471.959
470.395
468.596
466.529
464.16
461.453
458.369
454.868
450.912
446.461
441.481
435.94
429.817
423.094
415.766
407.84
399.331
390.27
380.695
370.663
360.239
349.499
338.523
327.392
316.187
304.986
293.862
282.879
272.093
261.544
251.257
241.251
231.544
222.15
213.082
204.346
195.948
187.888
180.165
172.775
165.712
158.969
152.533
146.394
140.54
134.956
129.631
124.544
119.667
114.996
110.534
106.285
102.251
98.4309
94.8186
91.4116
88.2065
85.1992
82.3905
79.7816
77.388
75.2216
73.3353
71.7349
50.2608
25.9818
20.7406
19.1296
18.7613
18.9901
19.6013
20.4866
21.5943
22.8983
24.3842
26.0425
27.866
29.8475
31.98
34.2569
36.6725
39.2225
41.9045
44.7173
47.6607
50.7349
53.9405
57.2778
60.7477
64.3509
68.0882
71.9604
75.9683
80.1122
84.3926
88.8098
93.3638
98.0542
102.881
107.842
112.936
118.162
123.519
129.002
134.612
140.345
146.2
152.173
158.263
164.469
170.787
177.217
183.757
190.404
197.159
204.019
210.982
218.048
225.213
232.476
239.834
247.284
254.822
262.444
270.145
277.919
285.758
293.657
301.605
309.593
317.61
325.644
333.684
341.714
349.72
357.687
365.598
373.435
381.181
388.818
396.328
403.691
410.892
417.912
424.736
431.351
437.742
443.897
449.806
455.457
460.839
465.942
470.758
475.281
479.507
483.432
487.056
490.379
493.406
496.139
498.586
500.754
502.648
504.276
505.646
506.765
507.64
508.283
508.69
508.842
508.755
508.492
507.995
507.296
506.408
505.311
503.999
502.483
500.769
498.852
496.723
494.365
491.763
488.891
485.721
482.224
478.365
474.107
469.413
464.247
458.573
452.359
445.582
438.224
430.276
421.742
412.638
402.995
392.856
382.282
371.34
360.108
348.664
337.09
325.463
313.858
302.343
290.978
279.814
268.891
258.237
247.876
237.828
228.11
218.732
209.702
201.024
192.699
184.726
177.101
169.817
162.867
156.238
149.92
143.901
138.167
132.705
127.499
122.527
117.753
113.178
108.812
104.661
100.725
97.0017
93.4871
90.1781
87.0714
84.1666
81.4656
78.9778
76.7149
74.7135
72.9069
56.0382
29.1195
23.1445
21.2356
20.7279
20.8748
21.4339
22.2787
23.3479
24.6095
26.0462
27.6478
29.4076
31.3204
33.3817
35.5876
37.9349
40.4211
43.0447
45.805
48.7023
51.7373
54.911
58.2246
61.6797
65.2778
69.0207
72.9098
76.947
81.1334
85.4705
89.9592
94.6004
99.3944
104.341
109.441
114.693
120.096
125.648
131.349
137.197
143.189
149.324
155.6
162.016
168.569
175.258
182.081
189.037
196.125
203.342
210.689
218.163
225.763
233.487
241.333
249.298
257.379
265.572
273.873
282.276
290.775
299.363
308.03
316.768
325.565
334.41
343.288
352.186
361.087
369.975
378.831
387.637
396.371
405.013
413.542
421.936
430.174
438.233
446.094
453.736
461.14
468.291
475.171
481.767
488.063
494.048
499.709
505.038
510.026
514.669
518.961
522.902
526.49
529.73
532.623
535.176
537.395
539.286
540.857
542.116
543.072
543.721
544.039
544.053
543.789
543.257
542.461
541.395
540.071
538.496
536.669
534.591
532.27
529.709
526.912
523.871
520.579
517.023
513.187
509.05
504.59
499.777
494.583
488.973
482.917
476.381
469.336
461.759
453.631
444.945
435.707
425.933
415.656
404.922
393.789
382.326
370.607
358.709
346.71
334.684
322.701
310.824
299.11
287.606
276.35
265.372
254.698
244.351
234.346
224.694
215.402
206.473
197.909
189.706
181.862
174.371
167.223
160.408
153.914
147.728
141.839
136.231
130.891
125.801
120.924
116.234
111.752
107.486
103.437
99.6039
95.9828
92.5706
89.3645
86.3633
83.5684
80.9851
78.6225
76.507
74.5328
60.9592
31.8397
25.2157
23.0326
22.3919
22.4588
22.9651
23.7689
24.8003
26.022
27.4141
28.965
30.6682
32.5195
34.5162
36.6561
38.9378
41.3603
43.9234
46.6273
49.4728
52.4612
55.5942
58.8737
62.3021
65.8816
69.6148
73.5042
77.5523
81.7614
86.1336
90.671
95.3752
100.248
105.289
110.501
115.883
121.436
127.159
133.051
139.111
145.339
151.733
158.291
165.013
171.897
178.941
186.146
193.508
201.028
208.704
216.536
224.521
232.659
240.948
249.386
257.971
266.698
275.564
284.565
293.695
302.946
312.311
321.78
331.343
340.988
350.702
360.469
370.273
380.096
389.919
399.721
409.48
419.174
428.777
438.266
447.614
456.797
465.79
474.567
483.104
491.379
499.37
507.058
514.424
521.45
528.122
534.425
540.348
545.882
551.02
555.756
560.087
564.012
567.532
570.65
573.37
575.697
577.638
579.199
580.393
581.213
581.634
581.672
581.37
580.722
579.737
578.419
576.77
574.797
572.507
569.904
566.995
563.786
560.284
556.493
552.415
548.047
543.384
538.418
533.137
527.527
521.57
515.244
508.525
501.389
493.809
485.762
477.229
468.197
458.662
448.633
438.131
427.185
415.838
404.148
392.179
380.002
367.689
355.312
342.941
330.639
318.465
306.47
294.697
283.182
271.953
261.037
250.459
240.233
230.371
220.875
211.75
202.994
194.606
186.583
178.919
171.606
164.631
157.983
151.65
145.619
139.877
134.41
129.2
124.215
119.418
114.829
110.459
106.307
102.373
98.6546
95.1472
91.8482
88.7561
85.8713
83.1962
80.7366
78.5117
76.3975
64.9576
34.0948
26.9224
24.4983
23.7365
23.7306
24.1839
24.9491
25.9467
27.1348
28.4903
30.0002
31.6576
33.4585
35.4009
37.4837
39.7068
42.0702
44.5748
47.2217
50.0126
52.9494
56.0347
59.2711
62.6619
66.2102
69.9194
73.7929
77.8342
82.0464
86.4327
90.9961
95.7394
100.665
105.776
111.073
116.559
122.234
128.1
134.157
140.405
146.845
153.474
160.294
167.303
174.501
181.886
189.458
197.217
205.161
213.29
221.603
230.099
238.776
247.634
256.67
265.882
275.266
284.818
294.534
304.406
314.428
324.591
334.885
345.298
355.818
366.429
377.114
387.857
398.635
409.429
420.215
430.967
441.661
452.268
462.761
473.11
483.286
493.26
503.004
512.488
521.686
530.572
539.122
547.313
555.126
562.541
569.542
576.116
582.25
587.937
593.169
597.942
602.252
606.101
609.489
612.419
614.896
616.925
618.513
619.668
620.368
620.615
620.425
619.821
618.8
617.37
615.531
613.289
610.647
607.612
604.19
600.389
596.216
591.681
586.79
581.552
575.969
570.046
563.781
557.176
550.225
542.925
535.264
527.232
518.815
509.999
500.774
491.13
481.06
470.569
459.668
448.385
436.74
424.773
412.537
400.092
387.501
374.832
362.148
349.511
336.977
324.597
312.417
300.474
288.799
277.417
266.353
255.637
245.281
235.292
225.673
216.425
207.547
199.037
190.893
183.111
175.68
168.589
161.826
155.379
149.236
143.384
137.81
132.495
127.407
122.516
117.839
113.381
109.145
105.128
101.326
97.7373
94.3575
91.1849
88.219
85.46
82.9109
80.5847
78.3538
68.0117
35.8625
28.2519
25.6247
24.7523
24.6841
25.0938
25.8269
26.7977
27.9605
29.2896
30.7705
32.3951
34.1591
36.0606
38.099
40.2746
42.5883
45.0417
47.6367
50.3758
53.2619
56.2984
59.489
62.8379
66.3492
70.0273
73.8763
77.9004
82.1038
86.4908
91.0653
95.8313
100.793
105.954
111.318
116.889
122.669
128.66
134.865
141.286
147.923
154.776
161.847
169.134
176.638
184.36
192.297
200.451
208.82
217.405
226.204
235.217
244.442
253.879
263.524
273.376
283.43
293.682
304.127
314.758
325.567
336.544
347.679
358.96
370.37
381.895
393.516
405.214
416.965
428.746
440.532
452.295
464.006
475.634
487.147
498.514
509.7
520.674
531.401
541.85
551.99
561.79
571.222
580.26
588.88
597.059
604.78
612.024
618.78
625.036
630.784
636.017
640.732
644.928
648.606
651.765
654.411
656.545
658.173
659.296
659.905
660.003
659.597
658.696
657.304
655.424
653.057
650.204
646.868
643.053
638.766
634.014
628.805
623.149
617.057
610.54
603.609
596.273
588.546
580.436
571.954
563.109
553.907
544.353
534.454
524.213
513.636
502.727
491.491
479.937
468.084
455.929
443.519
430.903
418.128
405.245
392.307
379.368
366.48
353.694
341.053
328.601
316.371
304.396
292.698
281.296
270.2
259.458
249.081
239.071
229.427
220.148
211.233
202.678
194.487
186.653
179.168
172.017
165.191
158.676
152.462
146.538
140.887
135.493
130.322
125.361
120.62
116.1
111.803
107.724
103.861
100.209
96.7649
93.5266
90.4925
87.6613
85.0339
82.6183
80.2918
70.1298
37.1418
29.2103
26.4244
25.4614
25.342
25.7173
26.4262
27.379
28.5266
29.8414
31.3069
32.9141
34.6578
36.5357
38.5468
40.6918
42.9719
45.389
47.9459
50.6457
53.4924
56.4903
59.6444
62.9603
66.4441
70.0996
73.931
77.9435
82.1421
86.532
91.1184
95.907
100.904
106.114
111.544
117.199
123.083
129.201
135.557
142.156
148.997
156.084
163.416
170.996
178.822
186.897
195.219
203.788
212.605
221.668
230.978
240.533
250.332
260.373
270.654
281.171
291.919
302.895
314.091
325.5
337.114
348.921
360.911
373.068
385.378
397.822
410.381
423.033
435.754
448.517
461.294
474.056
486.77
499.403
511.919
524.283
536.459
548.409
560.096
571.485
582.54
593.228
603.517
613.376
622.778
631.698
640.113
648.006
655.36
662.163
668.404
674.077
679.177
683.702
687.651
691.024
693.822
696.048
697.705
698.792
699.307
699.247
698.603
697.385
695.602
693.249
690.326
686.828
682.759
678.117
672.908
667.136
660.812
653.943
646.544
638.628
630.213
621.316
611.961
602.169
591.967
581.377
570.435
559.162
547.59
535.742
523.651
511.24
498.603
485.792
472.855
459.862
446.803
433.657
420.462
407.257
394.085
380.988
368.006
355.178
342.54
330.121
317.951
306.051
294.438
283.127
272.125
261.5
251.242
241.342
231.798
222.606
213.762
205.256
197.104
189.3
181.834
174.693
167.865
161.337
155.103
149.151
143.465
138.024
132.807
127.811
123.039
118.489
114.16
110.047
106.147
102.454
98.9671
95.6816
92.596
89.7078
87.0165
84.5258
82.1245
71.3555
37.9505
29.8181
26.9232
25.895
25.7389
26.0914
26.7872
27.7336
28.8795
30.1953
31.6632
33.2729
35.0183
36.8961
38.9051
41.0456
43.3189
45.7271
48.2734
50.9618
53.7974
56.7858
59.9314
63.2398
66.7174
70.3698
74.2035
78.225
82.4408
86.8578
91.4828
96.3235
101.388
106.683
112.218
117.998
124.03
130.32
136.874
143.693
150.784
158.149
165.791
173.714
181.916
190.398
199.16
208.202
217.523
227.123
237
247.153
257.58
268.277
279.242
290.47
301.955
313.692
325.673
337.888
350.329
362.982
375.835
388.873
402.078
415.431
428.91
442.493
456.151
469.859
483.585
497.296
510.958
524.536
537.99
551.282
564.373
577.222
589.79
602.037
613.924
625.416
636.476
647.071
657.171
666.748
675.777
684.236
692.11
699.382
706.042
712.081
717.496
722.281
726.437
729.961
732.854
735.116
736.75
737.756
738.125
737.861
736.921
735.338
733.111
730.232
726.693
722.49
717.618
712.076
705.863
698.983
691.443
683.253
674.426
664.981
654.939
644.329
633.183
621.54
609.438
596.921
584.058
570.886
557.372
543.614
529.68
515.783
501.914
488.029
474.178
460.444
446.676
432.97
419.36
405.876
392.543
379.388
366.434
353.702
341.214
328.986
317.034
305.371
294.004
282.937
272.148
261.736
251.678
241.968
232.602
223.575
214.881
206.508
198.495
190.818
183.462
176.413
169.658
163.183
156.988
151.061
145.385
139.945
134.734
129.748
124.985
120.443
116.116
112
108.091
104.385
100.878
97.5671
94.4498
91.5227
88.7847
86.2359
83.7805
71.637
38.2943
30.0984
27.1554
26.0952
25.923
26.2705
26.9703
27.9289
29.0938
30.4343
31.9314
33.5738
35.3541
37.2687
39.3155
41.4942
43.8061
46.254
48.8407
51.5695
54.4449
57.4721
60.6579
64.0092
67.5332
71.2378
75.1312
79.2219
83.5187
88.0304
92.7664
97.7362
102.949
108.415
114.143
120.141
126.418
132.98
139.834
146.984
154.436
162.193
170.257
178.634
187.323
196.324
205.638
215.263
225.197
235.439
245.986
256.836
267.984
279.426
291.157
303.17
315.457
328.01
340.821
353.877
367.167
380.677
394.392
408.296
422.37
436.593
450.942
465.391
479.914
494.48
509.058
523.612
538.107
552.504
566.763
580.843
594.703
608.299
621.59
634.535
647.092
659.223
670.89
682.059
692.695
702.768
712.253
721.126
729.367
736.961
743.896
750.162
755.754
760.669
764.904
768.458
771.328
773.515
775.021
775.847
775.967
775.391
774.057
772.013
769.243
765.737
761.481
756.466
750.683
744.128
736.794
728.685
719.802
710.159
699.764
688.645
676.825
664.343
651.246
637.591
623.428
608.741
593.606
578.183
562.725
547.29
531.827
516.531
501.228
486.072
471.129
456.436
441.981
427.784
413.859
400.215
386.86
373.798
361.034
348.571
336.409
324.55
312.995
301.744
290.798
280.154
269.813
259.797
250.108
240.743
231.7
222.971
214.552
206.417
198.615
191.126
183.938
177.037
170.413
164.041
157.95
152.109
146.508
141.14
135.999
131.074
126.367
121.873
117.586
113.502
109.617
105.925
102.426
99.1137
95.9869
93.0415
90.2764
87.6883
85.2
71.3823
38.2866
30.1192
27.1841
26.1303
25.9696
26.3407
27.0768
28.0831
29.3065
30.7159
32.2917
34.0217
35.8981
37.9161
40.0731
42.3681
44.8016
47.3748
50.0905
52.953
55.9673
59.1397
62.4774
65.9886
69.6821
73.5675
77.655
81.9554
86.4793
91.238
96.2429
101.506
107.038
112.85
118.954
125.359
132.073
139.106
146.464
154.153
162.178
170.542
179.246
188.292
197.682
207.416
217.49
227.903
238.649
249.726
261.128
272.849
284.882
297.219
309.852
322.77
335.963
349.418
363.124
377.067
391.231
405.602
420.163
434.895
449.777
464.79
479.908
495.105
510.354
525.623
540.88
556.09
571.216
586.217
601.055
615.685
630.067
644.156
657.911
671.289
684.249
696.751
708.758
720.231
731.139
741.449
751.133
760.168
768.531
776.207
783.18
789.443
794.99
799.816
803.92
807.298
809.947
811.865
813.054
813.504
813.219
812.131
810.238
807.554
804.063
799.747
794.591
788.578
781.696
773.934
765.286
755.747
745.321
734.017
721.849
708.846
695.044
680.474
665.119
649.046
632.408
615.469
598.313
580.979
563.689
546.267
528.935
511.836
495.03
478.603
462.614
447.099
432.062
417.502
403.411
389.776
376.581
363.806
351.431
339.437
327.805
316.516
305.556
294.913
284.575
274.534
264.784
255.331
246.175
237.311
228.736
220.444
212.431
204.691
197.23
190.045
183.13
176.472
170.065
163.88
157.945
152.248
146.784
141.544
136.52
131.703
127.101
122.703
118.501
114.488
110.661
107.016
103.552
100.265
97.153
94.2116
91.4401
88.8326
86.3326
70.5703
38.0229
29.9846
27.1068
26.1065
26.0136
26.4681
27.3006
28.4207
29.7773
31.3395
33.0878
35.0093
37.0958
39.342
41.7448
44.3027
47.0158
49.8852
52.9136
56.1052
59.4658
63.0022
66.7224
70.6354
74.7512
79.0808
83.6357
88.4283
93.4709
98.7767
104.359
110.23
116.404
122.894
129.711
136.865
144.365
152.218
160.433
169.015
177.966
187.286
196.974
207.029
217.443
228.216
239.343
250.818
262.633
274.78
287.248
300.029
313.109
326.475
340.114
354.011
368.15
382.515
397.089
411.857
426.8
441.902
457.143
472.506
487.971
503.515
519.118
534.752
550.392
566.008
581.568
597.039
612.385
627.568
642.548
657.286
671.739
685.868
699.63
712.985
725.894
738.318
750.22
761.566
772.321
782.455
791.938
800.747
808.858
816.254
822.919
828.843
834.02
838.447
842.121
845.036
847.188
848.574
849.192
849.038
848.083
846.252
843.572
840.023
835.585
830.236
823.957
816.726
808.526
799.342
789.165
777.985
765.808
752.643
738.499
723.353
707.223
690.22
672.538
654.307
635.569
616.554
597.111
577.506
557.921
538.463
519.288
500.545
482.349
464.789
447.93
431.798
416.392
401.692
387.666
374.274
361.474
349.219
337.465
326.165
315.28
304.773
294.611
284.769
275.224
265.96
256.965
248.236
239.766
231.552
223.585
215.862
208.381
201.137
194.127
187.354
180.814
174.488
168.384
162.494
156.823
151.369
146.126
141.088
136.25
131.601
127.147
122.881
118.797
114.889
111.151
107.588
104.193
100.962
97.893
94.9814
92.2277
89.6233
87.1348
69.1013
37.4208
29.6559
26.9532
26.1194
26.1813
26.805
27.8334
29.18
30.7957
32.651
34.7272
37.0121
39.4978
42.1791
45.053
48.118
51.3739
54.8218
58.464
62.3047
66.3493
70.6046
75.0784
79.7797
84.7183
89.9053
95.3523
101.072
107.076
113.378
119.991
126.929
134.206
141.836
149.832
158.197
166.935
176.052
185.546
195.419
205.67
216.299
227.3
238.668
250.393
262.466
274.876
287.611
300.657
313.999
327.623
341.51
355.644
370.006
384.577
399.336
414.263
429.338
444.543
459.858
475.265
490.746
506.285
521.865
537.468
553.078
568.674
584.237
599.742
615.163
630.475
645.645
660.644
675.437
689.988
704.262
718.219
731.824
745.039
757.828
770.153
781.98
793.274
804.003
814.137
823.643
832.494
840.665
848.133
854.877
860.879
866.129
870.618
874.342
877.297
879.476
880.871
881.483
881.312
880.339
878.469
875.71
872.04
867.434
861.866
855.308
847.734
839.121
829.446
818.69
806.844
793.89
779.797
764.542
748.188
730.849
712.629
693.549
673.804