/*--------------------------------*- C++ -*----------------------------------*\
  =========                 |
  \\      /  F ield         | OpenFOAM: The Open Source CFD Toolbox
   \\    /   O peration     | Website:  https://openfoam.org
    \\  /    A nd           | Version:  13
     \\/     M anipulation  |
\*---------------------------------------------------------------------------*/
FoamFile
{
    format      ascii;
    class       volScalarField;
    location    "100";
    object      k;
}
// * * * * * * * * * * * * * * * * * * * * * * * * * * * * * * * * * * * * * //

dimensions      [0 2 -2 0 0 0 0];

internalField   nonuniform List<scalar> 
12225
(
0.362618
0.344589
0.328932
0.311395
0.297195
0.285463
0.277439
0.272168
0.27209
0.27355
0.277533
0.28211
0.291143
0.297147
0.307835
0.31469
0.32567
0.336136
0.440577
0.472642
0.465955
0.452471
0.454256
0.461543
0.47712
0.500865
0.525906
0.553757
0.581732
0.607539
0.634822
0.655457
0.681428
0.695728
0.721974
0.73548
0.390986
0.420421
0.423241
0.41975
0.414459
0.410367
0.41051
0.412343
0.416623
0.423429
0.432505
0.441503
0.452843
0.462917
0.474631
0.485813
0.49597
0.510761
0.377675
0.387522
0.392632
0.39272
0.391725
0.389447
0.387198
0.385609
0.384334
0.384313
0.384732
0.385745
0.387587
0.389772
0.392251
0.395711
0.398163
0.403282
0.3746
0.376207
0.378835
0.37931
0.378987
0.378034
0.376367
0.374649
0.372928
0.371368
0.370162
0.369013
0.368269
0.367704
0.367324
0.367295
0.367354
0.367879
0.37382
0.372741
0.372778
0.372598
0.372115
0.371236
0.370027
0.368597
0.367114
0.365536
0.364096
0.362641
0.361329
0.360116
0.358974
0.358032
0.357052
0.356463
0.373784
0.371743
0.370421
0.369359
0.36837
0.367301
0.366147
0.364855
0.363536
0.362128
0.360757
0.359373
0.358031
0.356747
0.355484
0.354343
0.353173
0.35221
0.373821
0.371558
0.369641
0.367995
0.366544
0.365179
0.363874
0.362553
0.361253
0.359932
0.35863
0.357337
0.356064
0.354833
0.353615
0.352472
0.351324
0.350293
0.373833
0.371552
0.369449
0.367529
0.365787
0.364175
0.362679
0.361247
0.359879
0.358547
0.357254
0.355997
0.354768
0.353583
0.35242
0.351314
0.35022
0.349207
0.373831
0.37156
0.369418
0.367405
0.365531
0.363777
0.362142
0.3606
0.359142
0.357754
0.356426
0.355155
0.35393
0.352756
0.351619
0.350535
0.349478
0.348487
0.373829
0.371561
0.369413
0.367378
0.365458
0.363646
0.361938
0.360326
0.358802
0.357359
0.355987
0.354682
0.353436
0.352249
0.351109
0.350027
0.348981
0.347996
0.373828
0.371559
0.369409
0.367371
0.365439
0.363608
0.361875
0.360233
0.358677
0.357201
0.3558
0.354468
0.353201
0.351996
0.350844
0.349751
0.348701
0.34771
0.373827
0.371557
0.369405
0.367365
0.36543
0.363593
0.36185
0.360196
0.358624
0.357132
0.355713
0.354365
0.353081
0.351861
0.350698
0.349593
0.348535
0.347534
0.373827
0.371555
0.369402
0.36736
0.365422
0.363583
0.361837
0.360177
0.3586
0.3571
0.355672
0.354315
0.353022
0.351792
0.35062
0.349504
0.34844
0.347428
0.373826
0.371553
0.369399
0.367355
0.365416
0.363575
0.361826
0.360164
0.358584
0.357081
0.355651
0.354289
0.352992
0.351757
0.350581
0.34946
0.34839
0.347372
0.373826
0.371552
0.369396
0.367351
0.36541
0.363568
0.361818
0.360154
0.358572
0.357068
0.355635
0.354272
0.352973
0.351736
0.350557
0.349433
0.348361
0.347339
0.373825
0.371551
0.369394
0.367348
0.365406
0.363562
0.361811
0.360146
0.358563
0.357056
0.355623
0.354258
0.352958
0.35172
0.350539
0.349414
0.34834
0.347316
0.373825
0.371551
0.369393
0.367346
0.365404
0.363559
0.361806
0.36014
0.358556
0.357049
0.355614
0.354248
0.352947
0.351707
0.350526
0.349399
0.348324
0.347299
0.373825
0.37155
0.369393
0.367346
0.365403
0.363557
0.361804
0.360138
0.358553
0.357045
0.35561
0.354243
0.352942
0.351701
0.350519
0.349391
0.348316
0.347289
0.373825
0.371551
0.369394
0.367346
0.365404
0.363559
0.361807
0.36014
0.358556
0.357048
0.355614
0.354247
0.352946
0.351705
0.350523
0.349395
0.34832
0.347293
0.373825
0.371552
0.369395
0.367349
0.365407
0.363564
0.361811
0.360147
0.358563
0.357057
0.355623
0.354259
0.352959
0.351721
0.35054
0.349415
0.348341
0.347317
0.373826
0.371553
0.369397
0.367352
0.365413
0.363571
0.361823
0.360163
0.358585
0.357086
0.35566
0.354304
0.353013
0.351783
0.350612
0.349495
0.348431
0.347414
0.373826
0.371554
0.369399
0.36736
0.365429
0.363604
0.361878
0.360245
0.358699
0.357231
0.355837
0.354511
0.353249
0.352043
0.350895
0.349795
0.348748
0.347741
0.373828
0.371551
0.369412
0.367419
0.365562
0.363832
0.36221
0.36068
0.359228
0.357842
0.356514
0.355238
0.354011
0.352829
0.351692
0.350593
0.349541
0.348521
0.373823
0.371557
0.369609
0.367917
0.366387
0.364967
0.363595
0.362247
0.360908
0.359579
0.358263
0.356966
0.355697
0.354457
0.353257
0.352091
0.350976
0.349892
0.373794
0.372009
0.371176
0.370428
0.36959
0.368606
0.367388
0.366005
0.36452
0.362993
0.361461
0.359962
0.358519
0.357131
0.355833
0.354593
0.353461
0.352373
0.374416
0.375729
0.378185
0.378516
0.377997
0.376678
0.374644
0.372467
0.370321
0.368297
0.366462
0.364866
0.363482
0.362289
0.36135
0.36054
0.359998
0.35949
0.379493
0.395365
0.399865
0.39824
0.39421
0.389186
0.385126
0.381888
0.379603
0.378151
0.377686
0.377897
0.378535
0.379731
0.381431
0.383363
0.385719
0.387984
0.408479
0.429537
0.424652
0.413526
0.40468
0.399922
0.400467
0.402712
0.407428
0.414273
0.422061
0.430758
0.439645
0.448898
0.457913
0.467073
0.475753
0.484536
0.365929
0.353623
0.342467
0.330898
0.319892
0.309389
0.30047
0.292784
0.286511
0.281429
0.277747
0.274899
0.273302
0.272128
0.272093
0.272356
0.272968
0.274139
0.0122079
0.035038
0.0522898
0.0674953
0.0811217
0.0933218
0.104028
0.112706
0.118581
0.12075
0.117616
0.116873
0.120936
0.128047
0.138422
0.150565
0.160553
0.174218
0.178951
0.17657
0.171311
0.149894
0.167027
0.180887
0.196161
0.212059
0.228733
0.246018
0.2639
0.282201
0.300893
0.319805
0.338924
0.358096
0.377321
0.396469
0.415563
0.434495
0.453306
0.471904
0.490342
0.508546
0.526579
0.544376
0.561999
0.579389
0.596607
0.613603
0.630432
0.647052
0.663509
0.679766
0.695865
0.71177
0.727514
0.743067
0.758455
0.773653
0.788677
0.803511
0.81816
0.832616
0.846874
0.860937
0.874784
0.888433
0.901844
0.915051
0.928003
0.940752
0.953242
0.965542
0.977586
0.989463
1.00109
1.01257
1.02381
1.03493
1.04582
1.0566
1.06713
1.07752
1.08762
1.09764
1.10763
1.11837
1.13038
1.13999
1.15081
1.16174
1.17274
1.18389
1.19495
1.20641
1.21755
1.229
1.2403
1.25155
1.26262
1.2733
1.28326
1.29174
1.29722
1.29528
1.30391
1.32446
1.32436
1.34315
1.34271
1.35023
1.36105
1.37627
1.37555
1.37632
1.38091
1.39166
1.38823
1.39569
1.39061
1.39187
1.39555
1.39059
1.38626
1.3796
1.37131
1.36156
1.35023
1.33738
1.32287
1.30675
1.28901
1.26976
1.24904
1.227
1.20349
1.17856
1.15254
1.12558
1.09785
1.06951
1.04058
1.01134
0.982446
0.952976
0.924749
0.903568
0.884668
0.866084
0.847579
0.829223
0.81106
0.79316
0.775609
0.758123
0.740779
0.724062
0.707857
0.691914
0.676308
0.661136
0.646497
0.632441
0.618923
0.605912
0.593434
0.581486
0.570054
0.559122
0.548687
0.538718
0.529205
0.520085
0.511392
0.502873
0.494955
0.486336
0.479436
0.4684
0.463355
0.434684
0.0273252
0.063158
0.0873157
0.105684
0.121264
0.135012
0.147215
0.158014
0.167518
0.176217
0.185898
0.196338
0.208277
0.222111
0.238356
0.256675
0.27515
0.293155
0.30988
0.32605
0.342803
0.361077
0.385447
0.411708
0.439449
0.468325
0.498249
0.52914
0.5609
0.5934
0.626544
0.660205
0.694286
0.728666
0.763259
0.797963
0.832715
0.867437
0.902087
0.936606
0.970971
1.00514
1.03911
1.07286
1.10638
1.13966
1.1727
1.2055
1.23805
1.27035
1.30241
1.33421
1.36577
1.39706
1.4281
1.45886
1.48934
1.51953
1.54941
1.57897
1.6082
1.63708
1.66559
1.69371
1.72143
1.74874
1.77561
1.80205
1.82799
1.85341
1.87829
1.90262
1.92638
1.94959
1.97223
1.9943
2.0158
2.03674
2.05714
2.07701
2.09634
2.11519
2.13355
2.1515
2.16905
2.1863
2.20348
2.22053
2.23754
2.25451
2.27159
2.28878
2.306
2.32336
2.3408
2.35835
2.37603
2.39384
2.41172
2.42962
2.44745
2.46504
2.48227
2.4992
2.51725
2.53491
2.55035
2.56765
2.5824
2.59859
2.6139
2.62948
2.64309
2.65632
2.6689
2.68095
2.68888
2.70105
2.70476
2.71506
2.71863
2.72087
2.72194
2.72132
2.71634
2.70867
2.6981
2.68459
2.66791
2.64779
2.62421
2.5972
2.56683
2.53319
2.49642
2.45678
2.41455
2.37001
2.32342
2.27511
2.22532
2.17427
2.12242
2.07023
2.01744
1.96498
1.91278
1.86085
1.80943
1.75877
1.70905
1.6604
1.61288
1.5657
1.51957
1.47483
1.43171
1.39008
1.34961
1.31051
1.27293
1.23693
1.20235
1.16915
1.13737
1.10699
1.07796
1.05024
1.02381
0.9986
0.974572
0.951652
0.929792
0.908855
0.888955
0.869448
0.851774
0.831835
0.817913
0.778024
0.0492678
0.0966224
0.125676
0.14757
0.166252
0.183135
0.198915
0.214075
0.229086
0.244526
0.260999
0.278521
0.29735
0.317705
0.339687
0.363122
0.387745
0.413184
0.439257
0.466196
0.494461
0.524617
0.557192
0.591594
0.627478
0.664635
0.702925
0.742205
0.782359
0.823277
0.864856
0.906981
0.949547
0.992445
1.03558
1.07886
1.12222
1.16558
1.2089
1.25213
1.29524
1.3382
1.38098
1.42358
1.46597
1.50815
1.55012
1.59186
1.63338
1.67467
1.71573
1.75655
1.79713
1.83746
1.87754
1.91735
1.95688
1.99611
2.03504
2.07364
2.11188
2.14976
2.18724
2.2243
2.26091
2.29704
2.33266
2.36775
2.40227
2.43619
2.46949
2.50213
2.5341
2.56537
2.59592
2.62574
2.65481
2.68311
2.71065
2.7374
2.76337
2.78857
2.813
2.83671
2.85976
2.88225
2.90432
2.92586
2.94688
2.96753
2.98783
3.00778
3.02735
3.04663
3.06558
3.08427
3.10271
3.12092
3.13889
3.15663
3.17413
3.19136
3.20834
3.22515
3.24196
3.25848
3.27472
3.29108
3.30672
3.32247
3.33767
3.35305
3.36735
3.38098
3.39378
3.4059
3.41645
3.42663
3.43312
3.43996
3.44273
3.44358
3.44257
3.4388
3.43139
3.4205
3.40593
3.38748
3.36499
3.33828
3.30732
3.27213
3.23278
3.18939
3.14219
3.09144
3.03746
2.98057
2.92111
2.85942
2.79583
2.73062
2.66432
2.59767
2.53101
2.46467
2.39869
2.33319
2.26841
2.20461
2.142
2.08074
2.02092
1.96243
1.90549
1.85024
1.79683
1.74522
1.69476
1.6459
1.59888
1.55375
1.51028
1.46845
1.42834
1.38996
1.3532
1.31805
1.28449
1.25244
1.22187
1.1927
1.16486
1.13827
1.11296
1.08861
1.06598
1.04295
1.02597
0.994242
0.0740621
0.131565
0.165824
0.19166
0.21374
0.233849
0.252934
0.271634
0.290476
0.30993
0.330387
0.352068
0.375154
0.399766
0.425952
0.453667
0.482816
0.513285
0.545035
0.578168
0.612891
0.649395
0.68771
0.727669
0.769094
0.811826
0.855721
0.900659
0.94654
0.993255
1.0407
1.08876
1.13732
1.1863
1.23559
1.2851
1.33478
1.38455
1.43437
1.48418
1.53396
1.58366
1.63326
1.68275
1.7321
1.7813
1.83033
1.8792
1.9279
1.97641
2.02473
2.07285
2.12077
2.16848
2.21597
2.26322
2.31023
2.35696
2.40341
2.44954
2.49535
2.54079
2.58583
2.63045
2.67461
2.71827
2.76139
2.80394
2.84586
2.88713
2.92769
2.96752
3.00656
3.04478
3.08214
3.11861
3.15416
3.18874
3.22234
3.25493
3.28649
3.31703
3.34654
3.37505
3.40261
3.42927
3.45507
3.47997
3.50401
3.52726
3.54976
3.5715
3.59251
3.61283
3.63249
3.65152
3.66998
3.68788
3.70528
3.72219
3.73864
3.75467
3.7703
3.7856
3.80063
3.81536
3.82983
3.84402
3.85778
3.87125
3.8843
3.89712
3.9092
3.92059
3.93111
3.94073
3.94911
3.95624
3.96084
3.96353
3.96373
3.96205
3.95778
3.95039
3.93943
3.92468
3.90587
3.88277
3.85518
3.82296
3.78604
3.74442
3.69817
3.64744
3.59245
3.53348
3.47088
3.40498
3.33616
3.26479
3.19134
3.11632
3.0403
2.96391
2.88757
2.81155
2.73604
2.66121
2.5873
2.51457
2.44323
2.37346
2.30536
2.239
2.1745
2.11192
2.05137
1.99286
1.93617
1.88141
1.82867
1.77797
1.72896
1.68163
1.63621
1.59269
1.55088
1.51086
1.4726
1.436
1.40106
1.36768
1.33583
1.30544
1.27651
1.2489
1.22305
1.19794
1.17804
1.14976
0.0998698
0.166219
0.206064
0.236084
0.261645
0.284868
0.306888
0.328452
0.350126
0.372378
0.39559
0.420051
0.445967
0.473462
0.502596
0.533373
0.565775
0.599769
0.635354
0.672572
0.711488
0.752129
0.794465
0.838407
0.883844
0.930653
0.978723
1.02794
1.0782
1.12939
1.1814
1.23413
1.28747
1.34133
1.39562
1.45026
1.50519
1.56034
1.61566
1.6711
1.72661
1.78215
1.83771
1.89324
1.94873
2.00416
2.05951
2.11477
2.16992
2.22496
2.27988
2.33467
2.38931
2.44381
2.49813
2.55228
2.60622
2.65995
2.71344
2.76666
2.81958
2.87218
2.9244
2.97622
3.02759
3.07845
3.12877
3.1785
3.22756
3.27592
3.32351
3.37029
3.41617
3.46113
3.50508
3.54799
3.58979
3.63043
3.66988
3.70808
3.745
3.78063
3.81495
3.84797
3.8797
3.91016
3.93936
3.96729
3.99398
4.01947
4.04379
4.06697
4.08902
4.11
4.12994
4.14889
4.16691
4.18405
4.20036
4.21588
4.23067
4.24476
4.25822
4.27109
4.28343
4.29529
4.30667
4.31758
4.32796
4.33783
4.34717
4.35606
4.36433
4.37192
4.37851
4.38402
4.38841
4.39083
4.39129
4.39016
4.38695
4.38142
4.37314
4.36169
4.34666
4.32775
4.30464
4.27708
4.24482
4.2077
4.16563
4.11858
4.06661
4.00985
3.94854
3.88294
3.8134
3.74029
3.66403
3.58514
3.50416
3.42165
3.33817
3.25431
3.17049
3.08703
3.00416
2.92213
2.84118
2.76156
2.6835
2.60717
2.5327
2.46021
2.38978
2.32149
2.25541
2.19154
2.1298
2.07021
2.01279
1.95756
1.90438
1.85319
1.80404
1.7569
1.71142
1.66782
1.62608
1.58609
1.54784
1.51127
1.47636
1.44304
1.41134
1.38122
1.35295
1.32611
1.30363
1.2755
0.125207
0.199571
0.244871
0.279042
0.308006
0.334171
0.358828
0.382818
0.406763
0.431158
0.456412
0.482848
0.510708
0.540158
0.571299
0.604181
0.638825
0.675235
0.713415
0.753375
0.79512
0.838632
0.883865
0.930747
0.979189
1.02909
1.08035
1.13286
1.18652
1.24122
1.29687
1.35337
1.41062
1.46854
1.52703
1.58604
1.64548
1.70529
1.76542
1.8258
1.8864
1.94718
2.00808
2.06909
2.13016
2.19129
2.25245
2.31361
2.37477
2.43591
2.49702
2.55808
2.61909
2.68003
2.74088
2.80164
2.86227
2.92275
2.98307
3.04318
3.10306
3.16267
3.22196
3.28088
3.33939
3.39742
3.45491
3.5118
3.56803
3.62351
3.67818
3.73195
3.78476
3.83652
3.88716
3.9366
3.98476
4.03157
4.07696
4.12087
4.16325
4.20405
4.24325
4.28082
4.31674
4.35102
4.38365
4.41461
4.44393
4.47163
4.49774
4.52229
4.5453
4.56681
4.58688
4.60556
4.62292
4.63901
4.65389
4.66763
4.68028
4.6919
4.70255
4.71229
4.72117
4.72927
4.73665
4.74333
4.74929
4.75446
4.75886
4.76268
4.76585
4.7684
4.76979
4.76972
4.76825
4.7655
4.76122
4.75522
4.7472
4.73687
4.72383
4.7077
4.6881
4.66468
4.6371
4.60505
4.56828
4.52659
4.47984
4.42798
4.37105
4.30916
4.2425
4.17134
4.09606
4.01708
3.93492
3.85012
3.76324
3.67487
3.58556
3.49584
3.40616
3.31685
3.22821
3.14049
3.05398
2.96891
2.88551
2.80396
2.72442
2.64701
2.57183
2.49893
2.42838
2.36018
2.29431
2.23075
2.16951
2.11056
2.05383
1.99928
1.94691
1.89668
1.84844
1.80219
1.75788
1.71526
1.67447
1.63541
1.59807
1.56244
1.52853
1.49637
1.46615
1.43779
1.41314
1.38404
0.149256
0.230581
0.280939
0.319028
0.351207
0.380115
0.407171
0.433293
0.459152
0.485283
0.512121
0.540023
0.56927
0.600072
0.632575
0.666872
0.703018
0.741041
0.780951
0.822744
0.866408
0.911906
0.959191
1.00819
1.05883
1.11102
1.16466
1.21967
1.27595
1.3334
1.39193
1.45145
1.51188
1.57314
1.63514
1.69781
1.76108
1.8249
1.88919
1.9539
2.01898
2.08439
2.15008
2.21601
2.28215
2.34848
2.41496
2.48158
2.54831
2.61515
2.68207
2.74906
2.81611
2.88319
2.9503
3.01742
3.08451
3.15157
3.21855
3.28542
3.35215
3.41869
3.48499
3.55099
3.61663
3.68185
3.74657
3.81071
3.87418
3.93691
3.9988
4.05974
4.11966
4.17843
4.23597
4.29217
4.34693
4.40015
4.45175
4.50163
4.54972
4.59596
4.64027
4.68262
4.72297
4.7613
4.79757
4.83177
4.86391
4.89399
4.92204
4.94807
4.97212
4.99424
5.01446
5.03285
5.04947
5.0644
5.07768
5.0894
5.09961
5.1084
5.11584
5.12195
5.12681
5.13051
5.13321
5.13499
5.13574
5.13532
5.13375
5.1315
5.12841
5.12441
5.11927
5.11287
5.10527
5.09636
5.08601
5.074
5.06011
5.04403
5.02541
5.0039
4.97912
4.95071
4.91832
4.8816
4.84029
4.79413
4.74297
4.6867
4.62532
4.55891
4.48766
4.41186
4.33191
4.24828
4.1615
4.07212
3.98071
3.88784
3.79403
3.69981
3.60561
3.51179
3.41867
3.32655
3.2357
3.14637
3.05879
2.97314
2.8896
2.80828
2.72929
2.65269
2.57854
2.50685
2.43761
2.3708
2.30642
2.24442
2.18476
2.12739
2.07229
2.01944
1.96874
1.92016
1.87363
1.829
1.78628
1.74529
1.70606
1.66858
1.6329
1.59907
1.56725
1.5375
1.51101
1.48126
0.171327
0.258472
0.313305
0.354936
0.390055
0.421482
0.450729
0.478772
0.506322
0.533943
0.562097
0.591168
0.621473
0.653256
0.686703
0.721946
0.759071
0.798125
0.839131
0.882089
0.92698
0.973768
1.0224
1.07282
1.12496
1.17873
1.23405
1.29084
1.34902
1.4085
1.4692
1.53104
1.59394
1.65783
1.72264
1.78829
1.85471
1.92185
1.98964
2.05802
2.12694
2.19636
2.26622
2.33649
2.40714
2.47812
2.54941
2.62098
2.69282
2.7649
2.83722
2.90974
2.98245
3.05535
3.1284
3.2016
3.2749
3.3483
3.42175
3.49522
3.56866
3.64203
3.71526
3.78829
3.86106
3.93348
4.00547
4.07693
4.14776
4.21787
4.28713
4.35544
4.42266
4.48869
4.55338
4.61662
4.67828
4.73823
4.79636
4.85255
4.9067
4.9587
5.00848
5.05597
5.10109
5.14381
5.18406
5.22183
5.25709
5.28985
5.32012
5.3479
5.37323
5.39613
5.41667
5.4349
5.45088
5.46468
5.47637
5.48601
5.49368
5.49945
5.50351
5.50572
5.5062
5.50506
5.50256
5.4987
5.49344
5.48678
5.47886
5.46982
5.45966
5.44837
5.4359
5.42221
5.4073
5.39112
5.37355
5.35446
5.33363
5.31081
5.2857
5.25797
5.22728
5.19326
5.15556
5.11382
5.06774
5.01704
4.96151
4.90103
4.83556
4.76515
4.69001
4.61042
4.5268
4.43961
4.34938
4.25663
4.16191
4.06576
3.96871
3.87123
3.77375
3.67665
3.58027
3.48491
3.39087
3.29839
3.2077
3.11898
3.03241
2.94811
2.8662
2.78675
2.7098
2.63537
2.56347
2.49407
2.42716
2.36272
2.30069
2.24103
2.1837
2.12867
2.0759
2.02532
1.97688
1.93047
1.88605
1.84351
1.80284
1.76392
1.72683
1.69165
1.65849
1.6275
1.59942
1.569
0.190882
0.282696
0.34133
0.386041
0.423769
0.457463
0.488699
0.518496
0.547588
0.576556
0.605881
0.635965
0.667146
0.699697
0.733832
0.769712
0.807449
0.847112
0.88874
0.932342
0.977907
1.0254
1.07479
1.12601
1.17901
1.23371
1.29005
1.34796
1.40736
1.46818
1.53035
1.5938
1.65847
1.72428
1.79117
1.85908
1.92793
1.99768
2.06827
2.13962
2.2117
2.28446
2.35784
2.43181
2.50633
2.58136
2.65688
2.73285
2.80925
2.88607
2.96329
3.04088
3.11884
3.19714
3.27576
3.35469
3.43389
3.51334
3.59301
3.67285
3.75281
3.83284
3.91288
3.99285
4.07268
4.15227
4.23152
4.31034
4.3886
4.46618
4.54295
4.61878
4.69351
4.767
4.8391
4.90966
4.97851
5.04551
5.11051
5.17336
5.23393
5.2921
5.34773
5.40075
5.45104
5.49854
5.54318
5.5849
5.62368
5.65949
5.69233
5.7222
5.74912
5.77312
5.79425
5.81255
5.8281
5.84095
5.85119
5.85887
5.86407
5.86673
5.8672
5.86542
5.86144
5.85543
5.84748
5.83769
5.8261
5.81278
5.79784
5.78141
5.76353
5.74428
5.72368
5.70177
5.67857
5.65408
5.62824
5.60098
5.57213
5.54153
5.50893
5.47405
5.43657
5.39617
5.35249
5.30518
5.25392
5.19842
5.13844
5.07383
5.00454
4.93061
4.85221
4.76963
4.68325
4.5935
4.50088
4.40588
4.30901
4.21078
4.11166
4.01213
3.91259
3.81341
3.71493
3.61749
3.52138
3.42684
3.33409
3.24331
3.15467
3.06832
2.98436
2.90287
2.8239
2.74748
2.6736
2.60227
2.53346
2.46715
2.40329
2.34184
2.28276
2.22601
2.17157
2.11937
2.06936
2.02145
1.97559
1.9317
1.88976
1.84971
1.81155
1.77528
1.74103
1.70894
1.67949
1.6484
0.207557
0.302937
0.364664
0.411955
0.451921
0.487604
0.520622
0.552014
0.582527
0.612747
0.643162
0.674178
0.706144
0.739347
0.774017
0.810336
0.848434
0.888402
0.930294
0.974133
1.01992
1.06764
1.11726
1.16873
1.22201
1.27705
1.33379
1.39217
1.45213
1.51362
1.57658
1.64095
1.70667
1.77368
1.84193
1.91136
1.98192
2.05355
2.12619
2.1998
2.27432
2.3497
2.4259
2.50288
2.58061
2.65904
2.73814
2.8179
2.89828
2.97927
3.06085
3.14299
3.22569
3.30892
3.39268
3.47693
3.56164
3.6468
3.73235
3.81826
3.90448
3.99095
4.07759
4.16433
4.25109
4.33775
4.42421
4.51035
4.59604
4.68113
4.76548
4.84893
4.9313
5.01243
5.09214
5.17024
5.24655
5.32088
5.39306
5.46291
5.53025
5.59493
5.65681
5.71574
5.77161
5.8243
5.87373
5.91982
5.96251
6.00178
6.03759
6.06993
6.09881
6.12426
6.1463
6.165
6.1804
6.19258
6.20161
6.20747
6.21027
6.21016
6.20723
6.20151
6.19311
6.18212
6.16866
6.15284
6.13474
6.11446
6.09212
6.06785
6.04177
6.01397
5.98456
5.95364
5.92127
5.88753
5.85242
5.81594
5.77802
5.73856
5.69739
5.65431
5.60906
5.56136
5.51091
5.45734
5.40036
5.33966
5.27503
5.2063
5.13342
5.05637
4.97528
4.89039
4.80206
4.71067
4.61667
4.52049
4.42259
4.32342
4.22343
4.12304
4.02264
3.92256
3.82317
3.72481
3.62777
3.53227
3.43851
3.34669
3.25696
3.16947
3.08435
3.00167
2.92149
2.84381
2.76867
2.69606
2.62597
2.55837
2.49324
2.43052
2.37017
2.31217
2.25647
2.20304
2.15181
2.10271
2.0557
2.01072
1.96773
1.92671
1.88765
1.85056
1.81542
1.78239
1.75178
1.72006
0.221137
0.319074
0.3832
0.432561
0.474377
0.51175
0.546321
0.579136
0.610945
0.642329
0.673768
0.705664
0.738363
0.772151
0.807266
0.843897
0.882189
0.922244
0.964132
1.00789
1.05354
1.10107
1.15048
1.20172
1.25478
1.30961
1.36618
1.42444
1.48435
1.54587
1.60896
1.67357
1.73965
1.80716
1.87606
1.94629
2.01782
2.09059
2.16456
2.23968
2.31591
2.39319
2.4715
2.55079
2.63103
2.71218
2.79422
2.87712
2.96085
3.0454
3.13074
3.21687
3.30377
3.39142
3.47981
3.56891
3.65869
3.74913
3.84018
3.9318
4.02394
4.11653
4.2095
4.30276
4.39622
4.48977
4.58328
4.67663
4.76966
4.86222
4.95413
5.04522
5.13529
5.22415
5.31158
5.39738
5.48133
5.56321
5.64281
5.71991
5.79431
5.86583
5.93427
5.99946
6.06125
6.11951
6.17411
6.22495
6.27195
6.31504
6.3542
6.38939
6.42061
6.44786
6.47118
6.4906
6.50619
6.518
6.52607
6.53039
6.53122
6.52853
6.52242
6.51296
6.50025
6.48439
6.46548
6.44363
6.41896
6.39158
6.36163
6.32925
6.29459
6.2578
6.21904
6.17844
6.13617
6.09233
6.04704
6.00035
5.95232
5.90293
5.85212
5.79976
5.74568
5.68969
5.63158
5.57098
5.50764
5.44131
5.37176
5.29882
5.22236
5.14241
5.05906
4.97252
4.88306
4.79094
4.69652
4.60018
4.50234
4.40337
4.30369
4.20365
4.1036
4.00384
3.9047
3.8066
3.70979
3.61445
3.52079
3.42896
3.33914
3.25148
3.1661
3.0831
3.00251
2.92437
2.84869
2.77549
2.70476
2.63649
2.57065
2.50719
2.44608
2.38729
2.33078
2.27652
2.22444
2.1745
2.12665
2.08085
2.03706
1.99528
1.95549
1.91772
1.88188
1.84807
1.8165
1.78425
0.231553
0.331155
0.397027
0.44796
0.491227
0.529969
0.565838
0.599881
0.632837
0.665275
0.697659
0.730377
0.763759
0.798083
0.833581
0.870441
0.908811
0.948802
0.990494
1.03394
1.07917
1.1262
1.17503
1.22564
1.27804
1.3322
1.38809
1.4457
1.50501
1.56599
1.62861
1.69283
1.75863
1.82598
1.89485
1.9652
2.03701
2.11022
2.18482
2.26075
2.33798
2.41647
2.49619
2.5771
2.65917
2.74237
2.82668
2.91207
2.99853
3.08601
3.17452
3.26404
3.35456
3.44607
3.53855
3.63199
3.72634
3.82158
3.91768
4.01457
4.11222
4.21055
4.30948
4.40892
4.50878
4.60893
4.70924
4.80957
4.90975
5.00961
5.10896
5.2076
5.30531
5.40187
5.49704
5.59058
5.68224
5.77177
5.85892
5.94344
6.0251
6.10365
6.17889
6.25061
6.3186
6.38271
6.44278
6.49868
6.5503
6.59756
6.6404
6.67877
6.71264
6.74203
6.76694
6.78741
6.80348
6.81522
6.82264
6.82584
6.82494
6.81995
6.81094
6.79798
6.78117
6.7606
6.73637
6.7086
6.67739
6.64288
6.60522
6.56458
6.52111
6.47501
6.42647
6.3757
6.3229
6.26825
6.21196
6.15419
6.09509
6.03474
5.97323
5.91052
5.84655
5.78117
5.71392
5.64491
5.57405
5.50117
5.42608
5.34862
5.26864
5.18607
5.10094
5.01337
4.92352
4.83161
4.73788
4.64262
4.54615
4.44877
4.3508
4.25255
4.1543
4.05628
3.95878
3.86221
3.76682
3.67281
3.58035
3.48961
3.40072
3.31385
3.22916
3.14673
3.0666
2.98879
2.91333
2.84025
2.76957
2.70126
2.6353
2.57166
2.51031
2.45121
2.39435
2.33968
2.28716
2.23674
2.18839
2.14207
2.09776
2.05545
2.01513
1.97683
1.94045
1.90603
1.87368
1.84103
0.238833
0.339329
0.406348
0.458379
0.502706
0.542488
0.579384
0.614429
0.648352
0.681704
0.714924
0.74838
0.782379
0.817182
0.853007
0.890032
0.928402
0.968229
1.0096
1.05257
1.09718
1.14347
1.19146
1.24114
1.29254
1.34565
1.40047
1.457
1.51524
1.5752
1.63687
1.70018
1.76514
1.83175
1.89999
1.96985
2.04132
2.11435
2.18894
2.26504
2.34263
2.42169
2.50218
2.58408
2.66736
2.75199
2.83795
2.92522
3.01379
3.10362
3.19469
3.28697
3.38053
3.47533
3.57136
3.66859
3.76697
3.86649
3.9671
4.06877
4.17143
4.27502
4.37946
4.48465
4.59048
4.69683
4.80357
4.91052
5.01753
5.1244
5.23092
5.33687
5.44202
5.54611
5.64887
5.75004
5.84934
5.94648
6.04117
6.13314
6.2221
6.30778
6.38992
6.46828
6.54263
6.61277
6.6785
6.73967
6.79613
6.84778
6.89454
6.93632
6.97311
7.00489
7.03165
7.05343
7.07025
7.08217
7.08926
7.09153
7.08924
7.08222
7.07057
7.05437
7.03368
7.0086
6.97921
6.94563
6.90798
6.86638
6.82099
6.772
6.71958
6.66395
6.60533
6.54397
6.48013
6.4141
6.34611
6.27646
6.20544
6.13319
6.05975
5.98491
5.9092
5.83286
5.75618
5.67915
5.60125
5.52232
5.44217
5.36064
5.27754
5.19277
5.10627
5.01809
4.92832
4.83708
4.74454
4.6509
4.55637
4.4612
4.36561
4.26986
4.17417
4.0787
3.98368
3.88994
3.79736
3.70603
3.61609
3.52769
3.44095
3.35592
3.2729
3.19198
3.11319
3.03654
2.96207
2.88987
2.81993
2.75225
2.68679
2.62355
2.56249
2.5036
2.44686
2.39223
2.33969
2.28918
2.24068
2.19417
2.14963
2.10705
2.06644
2.02779
1.99102
1.95615
1.92324
1.89036
0.243119
0.343823
0.411444
0.464132
0.509147
0.549644
0.587281
0.623086
0.65777
0.691862
0.725779
0.759859
0.794384
0.829591
0.865681
0.90282
0.941141
0.98075
1.02173
1.06414
1.10804
1.15346
1.20044
1.24901
1.2992
1.35105
1.40452
1.45964
1.51647
1.57504
1.63543
1.69749
1.76127
1.82676
1.89398
1.96292
2.03359
2.10596
2.18003
2.25578
2.33319
2.41225
2.49294
2.57524
2.65912
2.74457
2.83158
2.92012
3.01019
3.10176
3.19482
3.28934
3.38541
3.48296
3.58198
3.68243
3.78428
3.88747
3.99202
4.09788
4.20498
4.31326
4.42263
4.53299
4.64425
4.75626
4.86888
4.98196
5.0953
5.20871
5.32195
5.4348
5.54699
5.65825
5.76829
5.8768
5.98348
6.08799
6.19004
6.28928
6.38541
6.47811
6.56709
6.65205
6.73275
6.80893
6.88036
6.94685
7.00823
7.06437
7.11515
7.16048
7.20031
7.23461
7.26338
7.28662
7.30436
7.31664
7.32354
7.32509
7.32164
7.31282
7.29875
7.27949
7.25511
7.22567
7.19127
7.152
7.10797
7.05932
7.00621
6.9488
6.88732
6.82198
6.75303
6.68076
6.60547
6.52755
6.4473
6.36492
6.2805
6.19477
6.10819
6.02187
5.93538
5.849
5.76316
5.67696
5.59082
5.50477
5.41871
5.33249
5.24594
5.1589
5.07124
4.98291
4.89389
4.8042
4.71388
4.62302
4.53171
4.44009
4.3483
4.25647
4.16477
4.0733
3.98213
3.89195
3.8028
3.71477
3.628
3.54262
3.45872
3.37647
3.29621
3.21786
3.14143
3.0669
2.99431
2.92376
2.8553
2.78893
2.72463
2.66238
2.60218
2.54403
2.48791
2.4338
2.38166
2.33147
2.2832
2.23684
2.19239
2.14983
2.10917
2.07039
2.0334
1.9983
1.96504
1.93211
0.244278
0.344718
0.412543
0.465542
0.510922
0.551835
0.589938
0.626255
0.661483
0.696131
0.73059
0.765166
0.800107
0.835609
0.871898
0.909116
0.947375
0.986769
1.02738
1.06927
1.11245
1.15697
1.2029
1.25029
1.29922
1.34979
1.40189
1.4556
1.51095
1.56795
1.6266
1.68698
1.74914
1.8131
1.87889
1.94652
2.01601
2.08735
2.16054
2.2356
2.3125
2.39124
2.4718
2.55418
2.63835
2.72431
2.81204
2.90152
2.99275
3.08569
3.18035
3.27668
3.37469
3.47439
3.57576
3.6788
3.78346
3.88971
3.99757
4.10697
4.21784
4.33009
4.44367
4.55849
4.67443
4.79137
4.90916
5.02763
5.1466
5.26585
5.38515
5.50424
5.62285
5.74068
5.85742
5.97273
6.08628
6.19771
6.30666
6.41278
6.51571
6.6151
6.71062
6.80193
6.88874
6.97076
7.04773
7.11941
7.1856
7.24614
7.30087
7.3497
7.39254
7.42935
7.4601
7.4848
7.50347
7.51614
7.52287
7.52379
7.51929
7.50877
7.49238
7.47015
7.44215
7.40843
7.36906
7.32412
7.27373
7.21801
7.15711
7.09122
7.02056
6.94535
6.86589
6.78243
6.69501
6.60419
6.51056
6.41479
6.31793
6.22006
6.12202
6.02315
5.92439
5.82624
5.72907
5.63294
5.53806
5.44453
5.35234
5.26135
5.17142
5.08233
4.9939
4.90595
4.81837
4.73103
4.64386
4.55681
4.46983
4.38293
4.29613
4.20948
4.12304
4.03689
3.95115
3.86609
3.78185
3.69855
3.61629
3.5352
3.45535
3.37674
3.29984
3.22462
3.1511
3.07927
3.00913
2.94106
2.8749
2.81062
2.7482
2.68764
2.6289
2.57204
2.51706
2.46395
2.41268
2.36322
2.31558
2.26974
2.2257
2.18346
2.14301
2.10432
2.06738
2.03227
1.9989
1.96612
0.243507
0.343268
0.410763
0.463586
0.508896
0.549831
0.588044
0.624548
0.660032
0.694985
0.729778
0.764692
0.799949
0.835722
0.872237
0.909576
0.947833
0.987086
1.02742
1.0689
1.11151
1.15532
1.20039
1.24676
1.29449
1.34358
1.39413
1.44623
1.49993
1.55533
1.61243
1.67129
1.73196
1.79448
1.85889
1.92523
1.99352
2.06377
2.13602
2.21027
2.28652
2.36477
2.44501
2.52725
2.61147
2.69765
2.78579
2.87587
2.96787
3.06179
3.15761
3.25531
3.35488
3.45633
3.55965
3.66482
3.77181
3.88056
3.99103
4.10321
4.21705
4.33248
4.44946
4.56788
4.68762
4.80859
4.93065
5.05362
5.17731
5.30152
5.426
5.55049
5.6747
5.79831
5.92099
6.04238
6.16211
6.2798
6.39505
6.50747
6.61666
6.72224
6.82383
6.92107
7.0136
7.1011
7.18327
7.25984
7.33057
7.39525
7.4537
7.50579
7.55143
7.59053
7.62307
7.64904
7.66843
7.68128
7.68764
7.68782
7.68213
7.66978
7.65091
7.62556
7.59375
7.55553
7.51096
7.46011
7.40309
7.34
7.27098
7.19612
7.11557
7.02964
6.93868
6.84309
6.74379
6.64089
6.53503
6.42715
6.31685
6.20521
6.093
5.98068
5.86896
5.75849
5.64985
5.54341
5.4395
5.33833
5.23995
5.14432
5.05126
4.96054
4.8719
4.78505
4.69975
4.61574
4.53279
4.4507
4.36927
4.28837
4.20787
4.12771
4.04787
3.96835
3.8892
3.81057
3.73254
3.65523
3.57872
3.50311
3.42848
3.35492
3.28264
3.21172
3.14219
3.07408
3.00736
2.94232
2.87895
2.81724
2.75719
2.69879
2.64205
2.58709
2.53384
2.48228
2.43237
2.38413
2.33751
2.29256
2.24927
2.20766
2.16768
2.12938
2.09277
2.05789
2.02465
1.99223
0.240925
0.339049
0.405714
0.457997
0.502947
0.54368
0.581834
0.618408
0.654072
0.689299
0.724434
0.759735
0.795398
0.831572
0.868389
0.905962
0.944375
0.983692
1.02396
1.06521
1.10745
1.15077
1.19524
1.24095
1.28796
1.33632
1.38607
1.4373
1.49009
1.54451
1.60062
1.65848
1.71816
1.77972
1.84321
1.90868
1.97616
2.0457
2.11733
2.19105
2.26688
2.34483
2.4249
2.50709
2.59137
2.67775
2.76621
2.85672
2.94927
3.04384
3.14041
3.23898
3.33952
3.44202
3.54647
3.65285
3.76114
3.8713
3.9833
4.09712
4.21271
4.33004
4.44901
4.56956
4.69161
4.81506
4.93979
5.06564
5.19244
5.31998
5.44803
5.57631
5.70453
5.83237
5.95947
6.08546
6.20993
6.33249
6.45269
6.57012
6.68435
6.79494
6.90149
7.00358
7.10084
7.19289
7.27939
7.36003
7.43452
7.50264
7.56415
7.6189
7.66674
7.70761
7.74142
7.76817
7.78784
7.80045
7.80605
7.80527
7.7981
7.78366
7.76208
7.73336
7.69751
7.65454
7.60448
7.5474
7.48336
7.41248
7.33493
7.25102
7.16099
7.06506
6.96364
6.85741
6.74613
6.63065
6.51164
6.38984
6.26576
6.14029
6.01428
5.88859
5.76405
5.64151
5.52173
5.40532
5.29277
5.1844
5.0804
4.98073
4.88525
4.79368
4.70567
4.62085
4.53881
4.45918
4.38155
4.30556
4.23085
4.15712
4.08412
4.01166
3.93961
3.86789
3.79648
3.72543
3.65478
3.58459
3.51494
3.44589
3.37753
3.30995
3.24328
3.17762
3.11303
3.04954
2.98721
2.92617
2.86648
2.80817
2.75124
2.69572
2.64158
2.58896