/*--------------------------------*- C++ -*----------------------------------*\
  =========                 |
  \\      /  F ield         | OpenFOAM: The Open Source CFD Toolbox
   \\    /   O peration     | Website:  https://openfoam.org
    \\  /    A nd           | Version:  13
     \\/     M anipulation  |
\*---------------------------------------------------------------------------*/
FoamFile
{
    format      ascii;
    class       volScalarField;
    location    "100";
    object      nut;
}
// * * * * * * * * * * * * * * * * * * * * * * * * * * * * * * * * * * * * * //

dimensions      [0 2 -1 0 0 0 0];

internalField   nonuniform List<scalar> 
12225
(
4.14701e-05
3.9409e-05
3.76191e-05
3.56127e-05
3.39895e-05
3.26467e-05
3.17298e-05
3.1127e-05
3.11178e-05
3.1283e-05
3.17423e-05
3.22538e-05
3.32993e-05
3.39842e-05
3.51998e-05
3.59598e-05
3.70646e-05
3.88816e-05
0.000332185
0.000216347
0.000180331
0.000158516
0.000147172
0.000138817
0.000133241
0.000132093
0.000129699
0.000130365
0.0001291
0.000129706
0.000128654
0.000128829
0.000128089
0.000127624
0.000127761
0.000126209
0.000670088
0.000450781
0.000355961
0.000309725
0.000275479
0.000250996
0.000231967
0.00021737
0.000202912
0.000192339
0.000182848
0.000175351
0.000169588
0.000163683
0.000160485
0.000155328
0.000153892
0.000149268
0.000801433
0.00069144
0.000572041
0.000498781
0.000448458
0.000410902
0.000380046
0.000355151
0.000333447
0.000314096
0.000297964
0.000281192
0.000270013
0.000255501
0.000247841
0.000235461
0.000229837
0.000219179
0.000839617
0.00081008
0.000740509
0.000675558
0.000622935
0.000580063
0.00054476
0.000513225
0.000488426
0.000463151
0.000444825
0.000422885
0.000408913
0.000389632
0.000378725
0.000361718
0.000353328
0.000337328
0.000850341
0.000843327
0.000819564
0.000786124
0.000750457
0.000715103
0.000684977
0.000655057
0.000631541
0.000606294
0.000587847
0.000565941
0.000551
0.000531683
0.0005193
0.000501988
0.000491808
0.000475046
0.000851591
0.000850994
0.000843326
0.00083345
0.000817072
0.000796675
0.000777562
0.000756186
0.000738315
0.000718365
0.000702712
0.000684642
0.000671082
0.000654729
0.000643019
0.000627964
0.000618178
0.000602995
0.000851587
0.000851811
0.000850041
0.000847501
0.000841374
0.00083374
0.000824799
0.000813251
0.0008026
0.000790123
0.000779307
0.000767004
0.000756816
0.000745028
0.000735702
0.000724429
0.00071632
0.000704456
0.000851674
0.000851532
0.000851013
0.000850357
0.00084889
0.000846171
0.00084306
0.000838274
0.000833388
0.000827234
0.000821085
0.000814564
0.000808181
0.000801146
0.000794869
0.000787767
0.000781887
0.000774067
0.000851755
0.000851386
0.000851044
0.000850632
0.000850258
0.000849367
0.000848426
0.000846784
0.000844972
0.000842518
0.000839899
0.000836745
0.000833715
0.00083003
0.000826802
0.000822698
0.000819631
0.000814918
0.000851785
0.000851357
0.000851014
0.000850611
0.000850333
0.000849904
0.000849532
0.000848932
0.000848311
0.000847398
0.000846467
0.00084517
0.000843974
0.000842321
0.000840947
0.000838959
0.000837545
0.000835225
0.000851789
0.000851359
0.000850997
0.000850604
0.000850293
0.000849937
0.000849647
0.00084928
0.000848957
0.000848506
0.0008481
0.000847507
0.000846994
0.000846236
0.000845629
0.000844698
0.00084403
0.000842934
0.000851786
0.000851362
0.000850986
0.000850604
0.00085027
0.000849925
0.00084963
0.000849312
0.000849042
0.000848727
0.000848461
0.000848124
0.000847841
0.000847462
0.000847152
0.00084672
0.00084638
0.000845893
0.000851783
0.000851364
0.000850978
0.000850602
0.000850256
0.000849916
0.000849607
0.000849299
0.000849021
0.000848739
0.000848486
0.000848222
0.000847986
0.000847732
0.000847506
0.000847256
0.000847033
0.000846784
0.000851781
0.000851364
0.000850973
0.000850598
0.000850247
0.000849909
0.000849592
0.000849286
0.000849
0.000848723
0.000848463
0.000848211
0.000847975
0.000847744
0.000847528
0.000847317
0.000847118
0.000846923
0.00085178
0.000851363
0.000850969
0.000850594
0.000850239
0.000849901
0.000849581
0.000849275
0.000848985
0.000848708
0.000848444
0.000848192
0.000847953
0.000847724
0.000847505
0.000847297
0.000847098
0.000846908
0.000851779
0.000851363
0.000850967
0.000850591
0.000850234
0.000849895
0.000849573
0.000849266
0.000848974
0.000848696
0.000848431
0.000848177
0.000847936
0.000847705
0.000847486
0.000847275
0.000847075
0.000846883
0.000851779
0.000851362
0.000850965
0.000850589
0.000850231
0.000849891
0.000849568
0.00084926
0.000848967
0.000848687
0.000848421
0.000848166
0.000847924
0.000847692
0.000847471
0.000847259
0.000847057
0.000846864
0.000851779
0.000851362
0.000850965
0.000850588
0.00085023
0.00084989
0.000849566
0.000849257
0.000848963
0.000848683
0.000848416
0.000848161
0.000847918
0.000847685
0.000847463
0.00084725
0.000847047
0.000846853
0.000851779
0.000851362
0.000850966
0.000850589
0.000850232
0.000849892
0.000849568
0.00084926
0.000848967
0.000848687
0.00084842
0.000848165
0.000847921
0.000847689
0.000847466
0.000847253
0.000847049
0.000846854
0.000851779
0.000851363
0.000850967
0.000850592
0.000850235
0.000849897
0.000849574
0.000849268
0.000848974
0.000848696
0.000848427
0.000848173
0.000847924
0.00084769
0.000847458
0.00084724
0.000847023
0.000846819
0.000851778
0.000851366
0.000850968
0.000850599
0.000850241
0.000849908
0.000849581
0.000849276
0.000848968
0.000848676
0.000848371
0.000848081
0.000847767
0.000847469
0.000847139
0.000846831
0.000846479
0.000846162
0.000851774
0.000851376
0.000850972
0.000850615
0.000850243
0.000849894
0.000849485
0.000849064
0.000848544
0.000847998
0.000847325
0.000846633
0.0008458
0.000844977
0.000843996
0.000843075
0.000841968
0.000840995
0.000851772
0.000851413
0.000850971
0.000850547
0.000849879
0.000848986
0.000847637
0.000846016
0.00084395
0.000841686
0.000839006
0.000836266
0.000833168
0.000830164
0.000826812
0.000823728
0.000820231
0.000817227
0.000851875
0.000851375
0.000850213
0.000848249
0.000844556
0.000839355
0.000832819
0.000825734
0.000817981
0.000810013
0.000801602
0.000793592
0.00078528
0.000777642
0.000769669
0.00076262
0.00075504
0.000748714
0.000852165
0.0008476
0.000839899
0.000827225
0.000808734
0.000789598
0.000769868
0.000751257
0.000733112
0.000716668
0.000700691
0.000686519
0.00067257
0.000660409
0.000648128
0.000637702
0.000626736
0.000617824
0.000843226
0.000822451
0.000775029
0.000726441
0.000684603
0.000649582
0.000618177
0.00059174
0.000568112
0.00054806
0.000529464
0.000513777
0.000498591
0.000485875
0.000473108
0.000462643
0.000451612
0.000442827
0.000794996
0.000668717
0.000570992
0.000510168
0.000465931
0.000431466
0.000404411
0.000382794
0.000364469
0.000349384
0.000336198
0.000325358
0.000314864
0.000306542
0.000298304
0.000291722
0.000284671
0.000279328
0.000500392
0.000349277
0.00029354
0.000260351
0.000237523
0.000221981
0.000212386
0.000204625
0.000199049
0.000195517
0.000192602
0.000190704
0.000188883
0.000187716
0.000186416
0.000185707
0.000184771
0.000184352
7.2717e-05
7.02673e-05
6.80494e-05
6.57506e-05
6.35637e-05
6.14766e-05
5.97045e-05
5.81769e-05
5.69307e-05
5.59208e-05
5.51894e-05
5.46235e-05
5.43065e-05
5.40732e-05
5.40666e-05
5.41186e-05
5.42415e-05
5.44741e-05
3.74671e-06
4.91204e-05
7.33495e-05
9.46185e-05
0.000113507
0.000130136
0.000144303
0.000155284
0.00016266
0.000167495
0.000173412
0.000173351
0.000183567
0.000204985
0.000245944
0.000323209
0.000388496
0.000427804
0.000409146
0.00036418
0.000296263
4.80065e-05
5.0897e-05
5.29873e-05
5.52763e-05
5.74602e-05
5.96191e-05
6.17458e-05
6.38511e-05
6.59211e-05
6.79601e-05
6.99539e-05
7.1907e-05
7.38082e-05
7.56628e-05
7.74631e-05
7.92153e-05
8.09139e-05
8.25654e-05
8.41657e-05
8.57217e-05
8.72301e-05
8.86976e-05
9.01226e-05
9.15108e-05
9.28606e-05
9.41767e-05
9.54581e-05
9.67089e-05
9.79282e-05
9.91192e-05
0.000100281
0.000101417
0.000102526
0.000103609
0.000104667
0.0001057
0.000106708
0.000107691
0.000108651
0.000109586
0.000110497
0.000111384
0.000112247
0.000113086
0.000113903
0.000114694
0.000115463
0.000116204
0.000116921
0.000117611
0.000118276
0.000118914
0.000119529
0.000120117
0.000120683
0.000121222
0.00012174
0.000122233
0.000122707
0.000123158
0.000123599
0.000124039
0.000124517
0.000125086
0.000125772
0.000125709
0.000125956
0.000126452
0.00012678
0.000127129
0.00012746
0.000127881
0.000128225
0.000128632
0.000129038
0.000129431
0.000129833
0.00013022
0.000130577
0.000130858
0.000130976
0.000130719
0.000129435
0.000131342
0.000134037
0.000130705
0.000134269
0.000131207
0.000133186
0.000132541
0.000135046
0.000134667
0.000132764
0.000134159
0.000135582
0.000133478
0.000135062
0.000134242
0.000133802
0.000135123
0.000134584
0.000134546
0.000134285
0.000133942
0.000133538
0.000133065
0.000132534
0.000131925
0.000131237
0.000130467
0.000129612
0.000128666
0.000127657
0.0001266
0.000125409
0.000124142
0.000122794
0.000121369
0.000119893
0.000118338
0.000116636
0.000115035
0.000113229
0.000110492
0.000108801
0.000107556
0.000106354
0.000105135
0.000103899
0.000102657
0.000101395
0.00010018
9.89556e-05
9.76441e-05
9.63708e-05
9.51644e-05
9.39441e-05
9.27171e-05
9.14933e-05
9.02821e-05
8.91027e-05
8.79522e-05
8.68249e-05
8.57228e-05
8.46509e-05
8.36081e-05
8.2594e-05
8.16102e-05
8.06556e-05
7.97302e-05
7.8831e-05
7.79599e-05
7.71002e-05
7.62846e-05
7.54017e-05
7.47113e-05
7.34358e-05
7.35831e-05
7.0314e-05
8.4688e-06
7.37054e-05
0.000148846
0.000207274
0.000250009
0.000280378
0.0003005
0.000312473
0.000317783
0.000317738
0.000316482
0.000319097
0.000326368
0.000338517
0.000359046
0.0003841
0.000396433
0.000399512
0.000392267
0.00037506
0.000348727
0.000314882
0.000319892
0.000330851
0.000343339
0.000356604
0.000370507
0.000385127
0.000400429
0.000416333
0.00043274
0.000449551
0.000466654
0.000483946
0.000501317
0.000518683
0.000535959
0.000553079
0.000569979
0.000586614
0.000602936
0.000618914
0.000634508
0.000649771
0.000664695
0.000679284
0.000693537
0.000707465
0.000721071
0.000734369
0.000747362
0.000760063
0.000772476
0.000784612
0.000796471
0.00080806
0.000819379
0.000830428
0.000841207
0.000851713
0.000861944
0.000871894
0.00088156
0.000890938
0.000900026
0.000908821
0.000917328
0.000925556
0.000933441
0.000940962
0.000948115
0.000954887
0.000961281
0.000967284
0.000972908
0.000978145
0.000983013
0.000987514
0.000991684
0.000995539
0.000999129
0.00100247
0.0010056
0.00100844
0.00101083
0.00101223
0.00101251
0.00101445
0.0010161
0.00101742
0.00101902
0.00102086
0.00102306
0.00102535
0.0010282
0.00103125
0.00103476
0.00103875
0.00104325
0.00104834
0.00105407
0.00106055
0.00106784
0.00107611
0.00108576
0.00109097
0.00109254
0.00110068
0.00110307
0.00111348
0.00111465
0.00112394
0.00112965
0.00113801
0.00114143
0.00114787
0.00115033
0.00116258
0.00116463
0.00116988
0.00117613
0.001181
0.00118694
0.00119325
0.00119736
0.00120081
0.00120346
0.00120531
0.00120628
0.00120609
0.00120482
0.00120239
0.00119878
0.00119402
0.0011883
0.00118146
0.00117361
0.00116479
0.00115506
0.00114455
0.00113331
0.00112107
0.00110839
0.00109567
0.0010786
0.00105899
0.00103837
0.00101731
0.000996102
0.000974893
0.000953863
0.000933002
0.000912458
0.00089219
0.000872267
0.000852689
0.000833989
0.00081596
0.00079819
0.000780846
0.000764012
0.000747739
0.000731904
0.000716488
0.000701537
0.000687066
0.000673036
0.000659452
0.000646309
0.00063359
0.000621259
0.000609333
0.000597669
0.000586447
0.000575182
0.000564404
0.000553414
0.000540703
0.000523003
0.000470395
1.52445e-05
0.000106732
0.000208791
0.000291689
0.000355378
0.000402508
0.000435567
0.000456711
0.000468531
0.000474465
0.000479222
0.00048546
0.000494873
0.000507904
0.000524136
0.00054142
0.000559298
0.000574565
0.000587347
0.000597877
0.000607359
0.000619004
0.000638352
0.000662072
0.000688122
0.000715837
0.000745629
0.000777073
0.000809553
0.000842804
0.000876639
0.000910901
0.000945422
0.00098003
0.00101451
0.00104877
0.00108271
0.00111625
0.0011493
0.00118182
0.00121375
0.00124507
0.00127577
0.00130585
0.00133531
0.00136416
0.00139241
0.00142007
0.00144716
0.00147369
0.00149967
0.00152512
0.00155005
0.00157447
0.00159839
0.00162183
0.00164477
0.00166723
0.00168921
0.00171069
0.00173168
0.00175217
0.00177215
0.00179161
0.00181055
0.00182894
0.00184678
0.00186405
0.00188073
0.0018968
0.00191224
0.00192704
0.00194119
0.00195469
0.00196755
0.00197974
0.00199129
0.0020022
0.00201248
0.00202213
0.00203116
0.00203954
0.00204724
0.00205417
0.00206027
0.00206556
0.00207053
0.00207581
0.00208068
0.00208535
0.00209011
0.00209498
0.00209999
0.00210517
0.00211067
0.00211643
0.00212262
0.0021293
0.00213652
0.00214437
0.00215289
0.00216208
0.00217181
0.00218176
0.00219113
0.0021982
0.00220506
0.0022145
0.00222228
0.00223276
0.00224001
0.00225183
0.00226187
0.00227242
0.00228085
0.00229091
0.00230007
0.00231329
0.00232157
0.00233022
0.00233796
0.00234475
0.00235197
0.00235851
0.00236315
0.00236623
0.00236764
0.00236725
0.00236494
0.00236054
0.00235401
0.0023453
0.00233437
0.00232128
0.00230617
0.00228899
0.00226988
0.00224896
0.00222634
0.00220221
0.0021767
0.00214977
0.00212176
0.002093
0.00206114
0.00202659
0.00199049
0.0019536
0.00191637
0.0018791
0.00184201
0.00180522
0.0017689
0.00173337
0.00169865
0.00166463
0.00163262
0.00160183
0.00157101
0.00154102
0.00151202
0.0014841
0.00145686
0.00143024
0.00140444
0.00137948
0.00135521
0.00133167
0.00130887
0.00128673
0.00126522
0.00124431
0.00122382
0.0012039
0.00118395
0.00116456
0.0011444
0.00112374
0.00109889
0.00103265
2.28657e-05
0.00013812
0.000262803
0.000365675
0.000446624
0.000508312
0.000554032
0.000586978
0.000610467
0.000628152
0.00064272
0.000655816
0.00066982
0.000685851
0.000704002
0.000723436
0.00074524
0.000769468
0.000795048
0.00082168
0.000849751
0.000880403
0.000914572
0.000951821
0.000991619
0.00103361
0.001077
0.00112142
0.00116685
0.00121304
0.00125977
0.00130699
0.00135456
0.00140237
0.00145011
0.00149753
0.00154449
0.00159088
0.00163662
0.00168166
0.00172595
0.00176947
0.00181219
0.00185412
0.00189526
0.0019356
0.00197517
0.00201397
0.00205202
0.00208934
0.00212594
0.00216184
0.00219705
0.00223159
0.00226547
0.0022987
0.00233128
0.00236322
0.00239451
0.00242516
0.00245516
0.0024845
0.00251317
0.00254115
0.00256844
0.00259502
0.00262087
0.00264596
0.00267029
0.00269383
0.00271656
0.00273847
0.00275956
0.0027798
0.0027992
0.00281774
0.00283544
0.00285229
0.00286829
0.00288342
0.00289768
0.00291102
0.00292341
0.00293484
0.00294533
0.00295503
0.00296422
0.00297306
0.00298145
0.00298953
0.00299744
0.00300524
0.00301299
0.00302074
0.00302856
0.00303649
0.00304462
0.00305301
0.00306172
0.00307078
0.00308021
0.00308995
0.00309983
0.00310953
0.00311867
0.00312696
0.00313544
0.00314476
0.00315385
0.00316361
0.00317279
0.00318363
0.00319409
0.0032046
0.00321449
0.00322457
0.00323556
0.00324821
0.00325681
0.00326417
0.00327095
0.00327751
0.00328331
0.00328782
0.00329063
0.00329152
0.00329028
0.00328674
0.00328073
0.00327209
0.00326074
0.00324661
0.00322966
0.00320994
0.00318752
0.00316248
0.00313493
0.00310503
0.00307295
0.00303887
0.003003
0.00296545
0.00292647
0.0028862
0.0028437
0.00279904
0.00275289
0.00270585
0.0026584
0.00261084
0.00256346
0.00251643
0.00246993
0.00242426
0.00237953
0.00233573
0.00229346
0.0022526
0.00221284
0.00217505
0.0021387
0.00210396
0.00206991
0.00203653
0.00200428
0.00197319
0.00194286
0.00191346
0.00188502
0.00185734
0.00183046
0.00180425
0.00177856
0.00175344
0.00172845
0.00170389
0.0016787
0.00165268
0.00162832
0.00156202
3.07662e-05
0.00016574
0.000311428
0.000432561
0.000529493
0.000604954
0.000662904
0.000707016
0.000740706
0.000767169
0.000789232
0.000809269
0.00082927
0.000850636
0.000874191
0.000900335
0.000929394
0.000961369
0.000995994
0.00103308
0.00107264
0.00111486
0.00115986
0.00120747
0.00125741
0.00130934
0.00136287
0.00141769
0.00147361
0.00153041
0.0015879
0.00164574
0.0017037
0.00176155
0.00181906
0.00187614
0.0019327
0.00198863
0.00204385
0.00209831
0.00215194
0.00220473
0.00225665
0.00230767
0.00235782
0.00240707
0.00245545
0.00250295
0.00254961
0.00259543
0.00264042
0.00268461
0.00272802
0.00277065
0.00281251
0.00285363
0.002894
0.00293363
0.00297251
0.00301066
0.00304806
0.0030847
0.00312057
0.00315566
0.00318994
0.00322341
0.00325604
0.0032878
0.00331868
0.00334866
0.0033777
0.0034058
0.00343293
0.00345909
0.00348425
0.0035084
0.00353154
0.00355366
0.00357474
0.00359476
0.0036137
0.00363153
0.00364822
0.00366376
0.00367822
0.0036917
0.00370435
0.00371628
0.00372754
0.00373822
0.00374843
0.00375823
0.00376768
0.00377684
0.00378577
0.0037945
0.00380311
0.00381165
0.00382015
0.00382866
0.0038372
0.00384573
0.00385415
0.0038623
0.00387007
0.00387756
0.00388514
0.00389301
0.00390089
0.00390886
0.00391664
0.00392513
0.00393376
0.0039426
0.0039519
0.00396157
0.00397096
0.00397893
0.0039852
0.00399107
0.00399644
0.00400101
0.00400447
0.00400641
0.00400663
0.00400482
0.00400072
0.00399414
0.00398486
0.00397274
0.00395762
0.00393943
0.00391811
0.00389368
0.0038662
0.00383576
0.00380248
0.00376653
0.00372812
0.00368745
0.00364475
0.00360021
0.00355402
0.00350628
0.00345671
0.0034054
0.00335277
0.0032993
0.00324538
0.00319134
0.00313745
0.00308393
0.00303098
0.00297884
0.00292767
0.00287754
0.00282877
0.00278139
0.00273532
0.00269094
0.00264819
0.00260786
0.00256918
0.00253206
0.0024965
0.00246244
0.00242888
0.00239645
0.00236514
0.00233457
0.002305
0.00227608
0.00224772
0.00221989
0.00219234
0.00216515
0.00213767
0.0021093
0.00208404
0.00202245
3.85036e-05
0.000190664
0.000354993
0.000492898
0.000604423
0.000692922
0.000762458
0.000817127
0.000860545
0.000895936
0.000926139
0.000953592
0.00098031
0.00100784
0.00103728
0.00106934
0.00110441
0.00114264
0.001184
0.00122836
0.00127563
0.00132571
0.00137849
0.00143376
0.00149127
0.0015507
0.00161175
0.00167413
0.00173757
0.00180182
0.00186663
0.00193175
0.00199694
0.002062
0.00212675
0.00219106
0.00225481
0.00231792
0.00238029
0.00244187
0.0025026
0.00256245
0.00262139
0.00267941
0.00273651
0.00279267
0.00284791
0.00290223
0.00295565
0.00300818
0.00305984
0.00311065
0.00316062
0.00320976
0.00325809
0.00330562
0.00335236
0.00339831
0.00344347
0.00348784
0.00353141
0.00357418
0.00361613
0.00365724
0.0036975
0.00373688
0.00377536
0.00381291
0.0038495
0.00388511
0.0039197
0.00395326
0.00398574
0.00401714
0.00404742
0.00407656
0.00410454
0.00413134
0.00415694
0.0041813
0.0042044
0.00422621
0.00424671
0.00426589
0.00428378
0.00430046
0.00431602
0.00433053
0.00434406
0.00435671
0.00436853
0.00437962
0.00439001
0.00439975
0.00440891
0.00441753
0.00442565
0.00443333
0.00444062
0.00444756
0.00445417
0.00446046
0.0044664
0.00447192
0.00447705
0.00448192
0.0044867
0.0044915
0.00449635
0.00450102
0.00450494
0.00450944
0.00451512
0.00452198
0.00452791
0.00453272
0.00453688
0.00454079
0.00454409
0.00454688
0.00454909
0.00455048
0.00455079
0.00454973
0.004547
0.00454234
0.00453549
0.00452622
0.00451429
0.00449953
0.00448176
0.00446087
0.00443679
0.00440949
0.004379
0.00434542
0.00430886
0.00426951
0.00422757
0.00418324
0.00413674
0.00408829
0.00403807
0.00398623
0.00393278
0.00387785
0.00382176
0.00376487
0.00370752
0.00365002
0.00359261
0.00353553
0.00347899
0.00342321
0.00336836
0.00331455
0.00326197
0.00321071
0.00316081
0.00311245
0.00306569
0.00302088
0.00297791
0.00293744
0.0028991
0.0028628
0.00282802
0.00279474
0.00276273
0.00273118
0.00270065
0.00267067
0.00264124
0.00261231
0.00258373
0.0025555
0.00252725
0.00249837
0.00247227
0.00241597
4.58369e-05
0.000212619
0.000393242
0.000546412
0.000671331
0.000772033
0.000852534
0.000917211
0.000969863
0.0010138
0.00105189
0.00108659
0.00111995
0.00115357
0.00118867
0.0012261
0.00126638
0.00130978
0.00135636
0.00140609
0.00145885
0.00151447
0.00157277
0.0016335
0.00169639
0.00176115
0.0018275
0.00189514
0.0019638
0.00203323
0.00210316
0.00217339
0.00224368
0.00231385
0.00238374
0.00245321
0.00252215
0.00259046
0.00265806
0.00272488
0.00279087
0.002856
0.00292023
0.00298355
0.00304595
0.00310742
0.00316797
0.0032276
0.00328634
0.00334418
0.00340114
0.00345725
0.00351252
0.00356695
0.00362058
0.0036734
0.00372542
0.00377666
0.0038271
0.00387675
0.0039256
0.00397365
0.00402086
0.00406723
0.00411273
0.00415734
0.00420102
0.00424374
0.00428547
0.00432618
0.00436581
0.00440434
0.00444172
0.00447792
0.00451291
0.00454663
0.00457907
0.00461017
0.00463991
0.00466824
0.00469513
0.00472055
0.00474446
0.00476686
0.00478774
0.00480715
0.00482513
0.00484175
0.00485705
0.0048711
0.00488396
0.0048957
0.00490637
0.004916
0.00492466
0.00493239
0.00493923
0.00494525
0.00495048
0.00495497
0.00495877
0.00496192
0.0049645
0.00496639
0.00496772
0.00496866
0.00496926
0.00496964
0.00497026
0.00497083
0.00497007
0.00496998
0.00497045
0.00497104
0.00497122
0.00497086
0.00497023
0.00496936
0.00496818
0.00496667
0.00496472
0.00496215
0.00495873
0.0049542
0.0049483
0.00494077
0.00493132
0.00491972
0.00490571
0.00488907
0.00486961
0.00484716
0.00482162
0.00479292
0.00476107
0.00472614
0.00468824
0.00464753
0.0046042
0.00455844
0.00451045
0.00446044
0.00440861
0.00435514
0.00430014
0.0042438
0.00418639
0.0041282
0.00406953
0.00401065
0.0039518
0.0038932
0.00383509
0.00377766
0.00372109
0.00366552
0.00361107
0.00355786
0.00350596
0.00345551
0.00340658
0.00335937
0.00331391
0.00327052
0.00322976
0.0031917
0.00315592
0.00312209
0.00308987
0.00305873
0.00302865
0.002999
0.00296982
0.00294104
0.00291262
0.00288453
0.00285657
0.00282832
0.00280197
0.00275279
5.25611e-05
0.000231419
0.000425947
0.000592702
0.000729847
0.000841927
0.000932797
0.001007
0.00106846
0.00112054
0.00116616
0.00120776
0.00124742
0.00128677
0.00132709
0.00136932
0.00141406
0.00146167
0.00151231
0.001566
0.00162264
0.00168208
0.0017441
0.00180848
0.00187493
0.00194318
0.00201296
0.00208398
0.00215599
0.00222873
0.00230197
0.0023755
0.00244912
0.00252266
0.00259596
0.00266889
0.00274133
0.0028132
0.00288441
0.0029549
0.00302462
0.00309351
0.00316157
0.00322875
0.00329506
0.00336049
0.00342504
0.00348872
0.00355152
0.00361348
0.00367461
0.00373491
0.00379441
0.00385312
0.00391106
0.00396824
0.00402466
0.00408033
0.00413525
0.00418942
0.00424283
0.00429547
0.00434732
0.00439835
0.00444854
0.00449786
0.00454627
0.00459372
0.00464019
0.00468561
0.00472994
0.00477313
0.00481512
0.00485586
0.0048953
0.00493338
0.00497005
0.00500525
0.00503893
0.00507105
0.00510154
0.00513036
0.00515748
0.00518285
0.00520647
0.00522834
0.00524848
0.00526691
0.00528368
0.00529882
0.00531239
0.00532443
0.00533499
0.00534411
0.00535185
0.00535824
0.00536334
0.0053672
0.00536987
0.00537141
0.00537184
0.00537124
0.00536991
0.00536743
0.00536406
0.00536024
0.00535629
0.00535153
0.00534652
0.00534092
0.00533485
0.0053288
0.00532284
0.00531685
0.00531065
0.00530424
0.00529773
0.00529117
0.00528457
0.00527791
0.00527109
0.00526398
0.00525639
0.00524811
0.00523888
0.00522847
0.00521658
0.00520296
0.00518732
0.00516941
0.00514901
0.00512591
0.00509996
0.00507104
0.00503913
0.00500426
0.00496653
0.00492607
0.00488304
0.00483759
0.0047899
0.00474017
0.00468858
0.00463532
0.00458057
0.00452451
0.0044674
0.00440952
0.00435112
0.00429242
0.00423367
0.00417509
0.00411689
0.00405929
0.00400246
0.00394655
0.00389166
0.00383791
0.00378539
0.00373421
0.00368449
0.00363633
0.00358982
0.00354514
0.00350265
0.00346326
0.00342684
0.00339278
0.00336062
0.00332991
0.00330042
0.00327177
0.0032438
0.00321606
0.00318862
0.00316146
0.00313447
0.00310746
0.00308154
0.00303893
5.85182e-05
0.000247
0.000453047
0.000631605
0.000779731
0.000902258
0.00100282
0.00108603
0.00115585
0.00121569
0.00126845
0.00131659
0.00136215
0.00140681
0.00145187
0.0014983
0.0015468
0.00159778
0.00165148
0.00170797
0.00176721
0.00182906
0.00189335
0.00195985
0.00202831
0.00209848
0.00217009
0.00224289
0.00231664
0.00239111
0.00246608
0.00254135
0.00261676
0.00269213
0.00276732
0.00284221
0.00291669
0.00299067
0.00306407
0.00313682
0.00320888
0.0032802
0.00335075
0.00342051
0.00348948
0.00355764
0.00362499
0.00369155
0.00375732
0.00382231
0.00388654
0.00395003
0.0040128
0.00407486
0.00413623
0.00419692
0.00425694
0.00431629
0.00437499
0.00443301
0.00449036
0.00454702
0.00460296
0.00465817
0.00471261
0.00476623
0.004819
0.00487087
0.00492179
0.00497168
0.0050205
0.00506817
0.00511462
0.00515979
0.00520359
0.00524596
0.00528682
0.0053261
0.00536372
0.00539961
0.00543371
0.00546594
0.00549625
0.00552458
0.00555091
0.00557521
0.00559746
0.00561767
0.00563586
0.00565204
0.00566624
0.00567851
0.00568887
0.00569736
0.00570404
0.00570896
0.00571215
0.00571369
0.00571362
0.005712
0.00570885
0.00570397
0.00569807
0.00569128
0.00568343
0.00567452
0.00566467
0.005654
0.00564266
0.00563067
0.00561815
0.00560536
0.0055924
0.00557933
0.00556616
0.00555295
0.00553982
0.00552687
0.00551415
0.00550167
0.00548941
0.00547727
0.00546513
0.00545281
0.0054401
0.00542676
0.00541252
0.00539708
0.00538015
0.00536144
0.00534069
0.00531765
0.00529211
0.00526392
0.005233
0.00519934
0.005163
0.00512409
0.00508271
0.00503897
0.00499302
0.00494501
0.00489512
0.00484352
0.00479041
0.00473597
0.00468046
0.00462415
0.00456726
0.00450997
0.00445251
0.0043951
0.00433797
0.00428132
0.00422535
0.00417019
0.00411594
0.00406271
0.0040106
0.00395975
0.00391026
0.00386223
0.00381574
0.00377092
0.00372804
0.00368796
0.00365137
0.00361743
0.00358559
0.00355542
0.00352662
0.00349888
0.00347202
0.00344576
0.0034199
0.00339418
0.00336859
0.00334311
0.00331816
0.00328112
6.36031e-05
0.000259404
0.000474631
0.000663131
0.000820877
0.000952776
0.00106223
0.00115381
0.00123145
0.00129857
0.00135803
0.00141227
0.00146333
0.00151284
0.00156214
0.00161223
0.00166383
0.00171743
0.00177332
0.00183163
0.00189238
0.00195548
0.00202078
0.00208809
0.00215721
0.0022279
0.00229993
0.00237309
0.00244715
0.00252191
0.00259718
0.00267278
0.00274855
0.00282435
0.00290005
0.00297552
0.00305066
0.0031254
0.00319964
0.00327334
0.00334643
0.00341889
0.00349068
0.00356178
0.00363219
0.00370189
0.00377089
0.00383921
0.00390684
0.0039738
0.00404012
0.00410582
0.00417091
0.00423541
0.00429936
0.00436275
0.00442561
0.00448793
0.00454972
0.00461098
0.00467169
0.00473184
0.00479141
0.00485037
0.00490867
0.00496628
0.00502314
0.00507919
0.00513437
0.0051886
0.00524181
0.00529391
0.00534482
0.00539443
0.00544267
0.00548942
0.0055346
0.0055781
0.00561983
0.00565969
0.0056976
0.00573345
0.00576717
0.00579869
0.00582794
0.00585487
0.00587945
0.00590164
0.00592145
0.00593887
0.0059539
0.00596658
0.00597692
0.00598496
0.00599073
0.0059943
0.00599571
0.00599504
0.00599234
0.00598748
0.00598055
0.0059719
0.00596195
0.00595059
0.00593754
0.00592309
0.00590736
0.00589049
0.00587262
0.00585388
0.00583443
0.00581447
0.00579417
0.00577366
0.00575306
0.00573254
0.00571225
0.00569234
0.00567292
0.00565409
0.00563588
0.00561828
0.00560121
0.00558456
0.00556815
0.00555176
0.00553516
0.005518
0.00549997
0.00548077
0.00546009
0.00543764
0.00541317
0.00538646
0.00535738
0.00532586
0.00529191
0.00525561
0.00521699
0.00517611
0.00513306
0.00508795
0.00504093
0.00499217
0.00494183
0.0048901
0.00483722
0.00478353
0.00472917
0.00467429
0.00461909
0.00456379
0.00450863
0.00445383
0.00439961
0.00434607
0.00429331
0.00424143
0.00419056
0.00414084
0.0040924
0.00404531
0.00399966
0.00395558
0.00391329
0.00387353
0.00383738
0.00380394
0.00377268
0.00374318
0.00371514
0.0036883
0.00366249
0.0036375
0.00361316
0.00358922
0.00356526
0.00354142
0.00351776
0.00348539
6.77541e-05
0.000268744
0.000490884
0.000687387
0.000853245
0.000993229
0.00111074
0.0012099
0.00129468
0.00136846
0.00143406
0.00149387
0.0015499
0.00160376
0.00165677
0.00170993
0.00176401
0.00181953
0.00187683
0.0019361
0.0019974
0.0020607
0.0021259
0.00219285
0.00226139
0.00233133
0.00240248
0.00247466
0.00254768
0.00262138
0.00269559
0.00277016
0.00284495
0.00291983
0.00299467
0.00306938
0.00314386
0.00321802
0.00329179
0.00336512
0.00343796
0.00351027
0.00358202
0.00365321
0.00372383
0.00379387
0.00386335
0.00393227
0.00400066
0.00406852
0.00413588
0.00420276
0.00426921
0.00433525
0.00440091
0.00446619
0.00453111
0.00459568
0.00465991
0.00472379
0.00478732
0.00485048
0.00491323
0.00497556
0.00503742
0.00509875
0.00515949
0.00521958
0.00527893
0.00533747
0.00539509
0.00545169
0.00550717
0.00556141
0.00561429
0.00566568
0.00571548
0.00576353
0.00580974
0.00585396
0.00589608
0.00593598
0.00597355
0.00600869
0.00604131
0.00607134
0.0060987
0.00612334
0.00614522
0.00616433
0.00618064
0.00619417
0.00620492
0.00621292
0.0062182
0.00622081
0.0062208
0.00621826
0.00621316
0.00620543
0.00619543
0.00618335
0.00616933
0.00615333
0.00613532
0.00611547
0.00609395
0.00607092
0.00604654
0.00602101
0.0059945
0.00596724
0.00593943
0.00591129
0.00588303
0.00585487
0.00582704
0.00579976
0.00577321
0.00574758
0.00572299
0.0056995
0.00567712
0.0056558
0.00563539
0.00561574
0.00559671
0.00557781
0.00555875
0.00553923
0.00551889
0.00549739
0.00547426
0.00544944
0.00542282
0.00539428
0.00536373
0.00533103
0.00529612
0.00525904
0.00521985
0.00517862
0.00513546
0.0050905
0.00504388
0.00499576
0.00494635
0.0048962
0.00484526
0.00479362
0.00474149
0.00468909
0.00463665
0.00458445
0.00453272
0.00448154
0.00443097
0.00438113
0.00433215
0.00428423
0.00423749
0.00419202
0.00414789
0.00410523
0.0040643
0.00402585
0.00399072
0.00395818
0.00392774
0.00389905
0.00387185
0.00384593
0.00382112
0.00379727
0.00377425
0.00375189
0.00372961
0.0037074
0.00368518
0.00365673
7.09512e-05
0.00027521
0.00050215
0.000704792
0.000877389
0.00102406
0.00114831
0.00125401
0.00134502
0.00142462
0.0014956
0.00156028
0.0016206
0.00167816
0.00173422
0.00178981
0.00184569
0.00190241
0.00196034
0.00201972
0.00208065
0.00214316
0.0022072
0.00227266
0.00233943
0.00240737
0.00247634
0.00254622
0.00261687
0.00268816
0.00275997
0.00283216
0.0029046
0.00297719
0.00304983
0.00312243
0.00319489
0.00326713
0.00333909
0.00341072
0.00348196
0.00355279
0.0036232
0.00369318
0.00376273
0.00383187
0.0039006
0.00396894
0.00403692
0.00410455
0.00417187
0.0042389
0.00430571
0.00437234
0.00443882
0.00450516
0.00457138
0.00463749
0.0047035
0.00476942
0.00483524
0.00490094
0.00496649
0.00503186
0.00509701
0.00516187
0.00522637
0.00529044
0.00535399
0.0054169
0.00547908
0.00554039
0.0056007
0.00565988
0.00571778
0.00577425
0.00582913
0.00588227
0.0059335
0.00598268
0.00602964
0.00607423
0.00611632
0.00615576
0.00619244