/*--------------------------------*- C++ -*----------------------------------*\
  =========                 |
  \\      /  F ield         | OpenFOAM: The Open Source CFD Toolbox
   \\    /   O peration     | Website:  https://openfoam.org
    \\  /    A nd           | Version:  13
     \\/     M anipulation  |
\*---------------------------------------------------------------------------*/
FoamFile
{
    format      ascii;
    class       volScalarField;
    location    "100";
    object      p;
}
// * * * * * * * * * * * * * * * * * * * * * * * * * * * * * * * * * * * * * //

dimensions      [0 2 -2 0 0 0 0];

internalField   nonuniform List<scalar> 
12225
(
-2.18335
-4.38052
-5.47051
-5.78257
-5.9607
-6.12872
-6.25921
-6.35266
-6.42654
-6.48996
-6.5446
-6.59218
-6.63174
-6.66321
-6.6846
-6.68496
-6.67648
-6.53848
-5.35256
-6.11825
-6.27658
-6.18054
-6.16454
-6.22937
-6.30392
-6.36655
-6.4226
-6.47568
-6.52482
-6.56853
-6.6066
-6.63759
-6.66124
-6.66626
-6.6819
-6.62483
-5.72458
-5.70453
-5.84126
-5.92417
-6.02021
-6.14027
-6.24638
-6.32928
-6.39829
-6.45979
-6.51478
-6.56289
-6.60488
-6.63979
-6.66912
-6.68619
-6.71115
-6.72067
-5.62067
-5.56643
-5.81072
-5.96661
-6.06474
-6.16806
-6.2631
-6.34028
-6.40567
-6.46464
-6.51808
-6.56559
-6.60785
-6.6444
-6.67677
-6.70335
-6.73781
-6.78645
-5.61271
-5.63615
-5.86373
-6.00336
-6.08473
-6.17496
-6.26429
-6.33967
-6.4043
-6.46284
-6.51636
-6.56459
-6.60824
-6.64747
-6.68416
-6.71938
-6.76421
-6.82492
-5.66986
-5.717
-5.89091
-6.01396
-6.09394
-6.18016
-6.2664
-6.34068
-6.40488
-6.46319
-6.51684
-6.56581
-6.61084
-6.6526
-6.6932
-6.73468
-6.78489
-6.8486
-5.72975
-5.77278
-5.90769
-6.02332
-6.10564
-6.18815
-6.27028
-6.34282
-6.40636
-6.46433
-6.51804
-6.56769
-6.61403
-6.65806
-6.7018
-6.74759
-6.80088
-6.86586
-5.78324
-5.82014
-5.92967
-6.03722
-6.11891
-6.19697
-6.27471
-6.3453
-6.4081
-6.4657
-6.51944
-6.56972
-6.61727
-6.66321
-6.70939
-6.75805
-6.81283
-6.87628
-5.83305
-5.86566
-5.95603
-6.05326
-6.1322
-6.20618
-6.27984
-6.3483
-6.41019
-6.46732
-6.52101
-6.57177
-6.6203
-6.6677
-6.71557
-6.76572
-6.82044
-6.88077
-5.88024
-5.90908
-5.98403
-6.07056
-6.14579
-6.21612
-6.28591
-6.35199
-6.41273
-6.46925
-6.52275
-6.57379
-6.62299
-6.67133
-6.72012
-6.77067
-6.82433
-6.88134
-5.92474
-5.94993
-6.01259
-6.08913
-6.15999
-6.22678
-6.29289
-6.35643
-6.4158
-6.47156
-6.5247
-6.57577
-6.62528
-6.67406
-6.72308
-6.77326
-6.82531
-6.87904
-5.963
-5.98507
-6.03879
-6.10708
-6.17349
-6.23701
-6.29994
-6.36109
-6.41903
-6.47394
-6.52657
-6.57741
-6.6269
-6.67563
-6.72437
-6.77369
-6.82399
-6.87481
-5.99839
-6.01787
-6.06428
-6.12521
-6.18713
-6.24743
-6.30733
-6.36613
-6.42255
-6.47648
-6.52843
-6.57885
-6.62804
-6.67644
-6.72454
-6.77272
-6.82112
-6.86926
-6.03557
-6.05256
-6.09226
-6.14592
-6.20283
-6.2595
-6.31614
-6.37229
-6.4269
-6.47958
-6.53058
-6.58024
-6.62878
-6.67647
-6.72354
-6.77015
-6.81635
-6.86167
-6.07332
-6.08796
-6.12173
-6.16857
-6.22023
-6.27296
-6.3262
-6.37946
-6.43193
-6.48305
-6.53279
-6.58129
-6.62875
-6.67525
-6.72089
-6.76559
-6.80935
-6.85181
-6.10969
-6.12223
-6.15104
-6.1919
-6.23841
-6.28712
-6.33693
-6.38723
-6.43728
-6.48653
-6.53466
-6.58167
-6.62756
-6.67246
-6.71625
-6.75885
-6.80004
-6.83974
-6.14181
-6.15266
-6.17761
-6.21362
-6.2556
-6.30054
-6.34715
-6.39459
-6.44214
-6.48928
-6.53559
-6.58079
-6.62481
-6.6677
-6.70941
-6.74973
-6.78846
-6.82547
-6.16532
-6.175
-6.19737
-6.23003
-6.26873
-6.31076
-6.35479
-6.39984
-6.44515
-6.49025
-6.53469
-6.57801
-6.62003
-6.66079
-6.70033
-6.73842
-6.77483
-6.80944
-6.17328
-6.18253
-6.20396
-6.23539
-6.27283
-6.31362
-6.35636
-6.40005
-6.44396
-6.48761
-6.53054
-6.57222
-6.61247
-6.65133
-6.6889
-6.72495
-6.75931
-6.79187
-6.1581
-6.16799
-6.19086
-6.22426
-6.26366
-6.30584
-6.34948
-6.39371
-6.43791
-6.48141
-6.52393
-6.56495
-6.60446
-6.64233
-6.67877
-6.7135
-6.74653
-6.77777
-6.13187
-6.1428
-6.16836
-6.20572
-6.24888
-6.2939
-6.3396
-6.38556
-6.43091
-6.47509
-6.51775
-6.55881
-6.59809
-6.63571
-6.67153
-6.70564
-6.73782
-6.76842
-6.0971
-6.10905
-6.13872
-6.18266
-6.23133
-6.27977
-6.32816
-6.37654
-6.42381
-6.46913
-6.51239
-6.55368
-6.59304
-6.63052
-6.66608
-6.69975
-6.7315
-6.7616
-6.05687
-6.06887
-6.1037
-6.15739
-6.21332
-6.26566
-6.31701
-6.36802
-6.41724
-6.46384
-6.50795
-6.54974
-6.58938
-6.62686
-6.66232
-6.6957
-6.72721
-6.75703
-6.01341
-6.02431
-6.06653
-6.13157
-6.19418
-6.2512
-6.3072
-6.36151
-6.41234
-6.45977
-6.50449
-6.54675
-6.58659
-6.62413
-6.65942
-6.69262
-6.72386
-6.75347
-5.96682
-5.97196
-6.03491
-6.11377
-6.17617
-6.23491
-6.29665
-6.35558
-6.40862
-6.45717
-6.50266
-6.54541
-6.58547
-6.623
-6.65817
-6.69117
-6.72217
-6.75167
-5.9238
-5.88767
-5.99781
-6.10856
-6.17021
-6.22553
-6.28835
-6.34887
-6.40283
-6.45217
-6.49842
-6.54175
-6.58217
-6.61991
-6.65517
-6.68821
-6.71925
-6.74874
-5.9366
-5.77915
-5.91372
-6.06926
-6.15794
-6.22799
-6.29631
-6.35711
-6.41005
-6.4585
-6.50391
-6.54642
-6.58601
-6.62297
-6.65747
-6.6898
-6.7203
-6.74944
-6.05314
-5.85947
-5.87975
-5.95846
-6.05028
-6.15158
-6.24375
-6.31883
-6.38175
-6.43781
-6.48883
-6.53527
-6.57776
-6.61683
-6.65279
-6.6861
-6.71744
-6.74781
-5.78458
-6.36996
-6.45562
-6.32909
-6.27357
-6.30002
-6.34635
-6.3893
-6.43099
-6.47335
-6.515
-6.55469
-6.59224
-6.62754
-6.66034
-6.69079
-6.71938
-6.74824
-2.77635
-4.55811
-5.55534
-5.84552
-5.9923
-6.13666
-6.25198
-6.33424
-6.39972
-6.4575
-6.50933
-6.55596
-6.59839
-6.63728
-6.67278
-6.70476
-6.73336
-6.75719
-8.08112
-8.07915
-8.07736
-8.07939
-8.08324
-8.08793
-8.0935
-8.09953
-8.10544
-8.11063
-8.11542
-8.12087
-8.12711
-8.133
-8.138
-8.14467
-8.15557
-8.17022
-8.18807
-8.20752
-8.22339
-8.23692
-8.25672
-8.28207
-8.30923
-8.33884
-8.37092
-8.40533
-8.44195
-8.4805
-8.52073
-8.56222
-8.60468
-8.64764
-8.69077
-8.73362
-8.77586
-8.81712
-8.85711
-8.89557
-8.93226
-8.967
-8.99964
-9.03006
-9.05815
-9.08388
-9.10714
-9.12796
-9.14626
-9.16209
-9.17537
-9.18622
-9.19455
-9.20048
-9.20392
-9.20505
-9.20376
-9.20022
-9.19428
-9.18623
-9.1759
-9.16357
-9.14906
-9.13271
-9.11429
-9.0942
-9.07221
-9.04873
-9.0235
-8.99698
-8.9689
-8.93973
-8.90913
-8.87763
-8.84489
-8.81148
-8.77697
-8.74184
-8.70569
-8.66911
-8.63156
-8.59348
-8.55422
-8.51432
-8.473
-8.43073
-8.38669
-8.34079
-8.29195
-8.23978
-8.18445
-8.12538
-8.06193
-7.99332
-7.91893
-7.83794
-7.74965
-7.65304
-7.54712
-7.43065
-7.30238
-7.16088
-7.00457
-6.83178
-6.64062
-6.42963
-6.19732
-5.94251
-5.66384
-5.36033
-5.03065
-4.67398
-4.28918
-3.87578
-3.43313
-2.96125
-2.46025
-1.93078
-1.37371
-0.790653
-0.183293
0.446261
1.0956
1.76172
2.4413
3.13053
3.82548
4.52205
5.21609
5.90353
6.58044
7.24312
7.88811
8.51235
9.11312
9.68817
10.2356
10.7541
11.2427
11.701
12.1293
12.5279
12.8978
13.2405
13.5574
13.8493
14.117
14.3613
14.5834
14.7847
14.9665
15.1304
15.2777
15.4097
15.5277
15.6331
15.7269
15.8103
15.8841
15.9493
16.0068
16.0573
16.1015
16.1401
16.1736
16.2027
16.2279
16.2496
16.2684
16.2848
16.2994
16.3128
16.3258
16.3396
16.3561
16.378
16.4124
16.4661
16.5665
16.7025
-8.07989
-8.07849
-8.07736
-8.07947
-8.08289
-8.08637
-8.08979
-8.09312
-8.09603
-8.09843
-8.10079
-8.10365
-8.10694
-8.1103
-8.11436
-8.12079
-8.12957
-8.13869
-8.14771
-8.15651
-8.16676
-8.1846
-8.2101
-8.23469
-8.26044
-8.28878
-8.31989
-8.35362
-8.38984
-8.42827
-8.46863
-8.51051
-8.55353
-8.59721
-8.64113
-8.68483
-8.72791
-8.77
-8.81078
-8.84996
-8.88732
-8.92268
-8.95587
-8.98679
-9.01534
-9.04147
-9.06512
-9.08628
-9.1049
-9.12101
-9.13457
-9.14565
-9.15419
-9.16028
-9.16388
-9.16509
-9.16386
-9.16031
-9.15437
-9.1462
-9.13574
-9.12316
-9.1084
-9.09165
-9.07287
-9.05226
-9.02977
-9.00563
-8.97978
-8.95248
-8.92367
-8.89362
-8.86223
-8.8298
-8.79624
-8.76186
-8.72648
-8.69038
-8.65342
-8.61591
-8.57762
-8.5388
-8.49917
-8.45894
-8.41769
-8.3755
-8.33185
-8.28655
-8.23884
-8.18855
-8.13538
-8.07891
-8.0184
-7.95307
-7.88218
-7.80492
-7.72043
-7.6277
-7.52567
-7.41306
-7.28867
-7.15108
-6.99897
-6.83073
-6.64499
-6.4401
-6.2146
-5.96719
-5.69667
-5.40174
-5.08126
-4.73399
-4.35913
-3.95581
-3.52364
-3.06237
-2.57199
-2.05303
-1.50648
-0.933575
-0.335933
0.284489
0.925423
1.58404
2.25711
2.94096
3.63175
4.32539
5.01779
5.70486
6.3826
7.04723
7.69521
8.32334
8.92878
9.50915
10.0624
10.5872
11.0824
11.5475
11.9826
12.388
12.7644
13.1128
13.4346
13.7313
14.0038
14.2531
14.4804
14.6869
14.8739
15.0429
15.1951
15.3319
15.4546
15.5644
15.6625
15.7498
15.8274
15.8963
15.9571
16.0108
16.058
16.0994
16.1356
16.1671
16.1946
16.2186
16.2394
16.2578
16.2742
16.2893
16.304
16.3195
16.3375
16.3608
16.3945
16.4438
16.5337
16.6463
-8.07272
-8.07331
-8.07398
-8.0766
-8.07964
-8.08199
-8.08357
-8.0845
-8.0848
-8.08463
-8.08441
-8.08467
-8.08565
-8.0873
-8.08995
-8.0945
-8.10142
-8.11005
-8.11997
-8.1308
-8.14273
-8.15764
-8.17695
-8.19923
-8.22474
-8.25358
-8.28552
-8.32019
-8.35728
-8.39635
-8.43703
-8.47888
-8.52151
-8.56449
-8.60746
-8.65004
-8.6919
-8.73274
-8.77229
-8.81031
-8.84661
-8.881
-8.91336
-8.94356
-8.97151
-8.99714
-9.02037
-9.04119
-9.05955
-9.07544
-9.08884
-9.09977
-9.10821
-9.11419
-9.1177
-9.11879
-9.11746
-9.11376
-9.10769
-9.09933
-9.08869
-9.07586
-9.06085
-9.04377
-9.02466
-9.00363
-8.98074
-8.95611
-8.9298
-8.90194
-8.87261
-8.84196
-8.81004
-8.77701
-8.74294
-8.70798
-8.67214
-8.63555
-8.59824
-8.56034
-8.5218
-8.48273
-8.44306
-8.40281
-8.36179
-8.31992
-8.27695
-8.23252
-8.18617
-8.13754
-8.08659
-8.03277
-7.97525
-7.91346
-7.84648
-7.77361
-7.69381
-7.60615
-7.50939
-7.40237
-7.28381
-7.15239
-7.00679
-6.84543
-6.66704
-6.46999
-6.25305
-6.01469
-5.75383
-5.46893
-5.15895
-4.82255
-4.4589
-4.06703
-3.64662
-3.1972
-2.71887
-2.21197
-1.6774
-1.11622
-0.529935
0.0796601
0.710368
1.35956
2.02413
2.70056
3.3851
4.07374
4.76247
5.44715
6.12383
6.78861
7.43795
8.0685
8.67741
9.26215
9.82072
10.3516
10.8537
11.3267
11.7703
12.1849
12.5709
12.9294
13.2613
13.5678
13.8498
14.1083
14.3444
14.5594
14.7545
14.9311
15.0906
15.2343
15.3635
15.4793
15.583
15.6757
15.7582
15.8316
15.8968
15.9544
16.0053
16.0501
16.0895
16.1241
16.1544
16.1809
16.2041
16.2247
16.2432
16.2603
16.2768
16.2939
16.3134
16.3374
16.3702
16.4146
16.4887
16.5636
-8.05709
-8.06107
-8.06519
-8.06959
-8.07331
-8.07569
-8.07677
-8.07675
-8.07582
-8.07425
-8.07252
-8.07115
-8.07054
-8.07094
-8.07272
-8.07642
-8.08248
-8.09093
-8.10167
-8.11455
-8.12953
-8.14693
-8.16717
-8.19026
-8.21631
-8.24528
-8.27699
-8.31116
-8.3475
-8.38564
-8.42523
-8.46589
-8.50725
-8.54893
-8.59059
-8.63187
-8.67246
-8.71207
-8.75045
-8.78737
-8.82263
-8.85607
-8.88754
-8.91693
-8.94413
-8.96908
-8.9917
-9.01196
-9.02979
-9.04521
-9.05816
-9.06866
-9.07669
-9.08228
-9.0854
-9.08609
-9.08436
-9.08025
-9.07376
-9.06496
-9.05386
-9.04055
-9.02504
-9.00745
-8.9878
-8.96621
-8.94274
-8.91751
-8.8906
-8.86215
-8.83223
-8.801
-8.76854
-8.735
-8.70049
-8.66513
-8.62899
-8.59218
-8.55478
-8.51686
-8.47844
-8.43958
-8.40028
-8.36051
-8.32015
-8.27908
-8.23712
-8.19394
-8.14902
-8.10234
-8.05351
-8.00205
-7.94732
-7.88858
-7.82513
-7.75607
-7.6805
-7.59735
-7.50548
-7.40367
-7.29065
-7.16511
-7.0256
-6.87073
-6.69904
-6.50916
-6.29967
-6.06921
-5.81643
-5.53998
-5.23857
-4.91102
-4.5563
-4.17358
-3.76238
-3.32231
-2.85338
-2.35584
-1.83044
-1.27817
-0.700431
-0.0989375
0.524171
1.16636
1.82461
2.49552
3.17541
3.86034
4.54631
5.22921
5.90505
6.56991
7.22018
7.85247
8.46389
9.05191
9.61453
10.1503
10.6582
11.1377
11.5885
12.0108
12.4049
12.7717
13.1118
13.4264
13.7162
13.9822
14.2256
14.4475
14.6494
14.8325
14.9982
15.1477
15.2824
15.4035
15.5121
15.6093
15.6961
15.7735
15.8423
15.9034
15.9575
16.0053
16.0475
16.0846
16.1173
16.146
16.1714
16.1939
16.2141
16.2328
16.2506
16.2688
16.2888
16.3124
16.3429
16.3807
16.4379
16.4795
-8.03373
-8.04155
-8.05033
-8.05765
-8.06301
-8.06637
-8.06801
-8.0683
-8.06759
-8.06624
-8.06471
-8.06351
-8.0631
-8.06388
-8.06625
-8.07059
-8.0772
-8.08624
-8.09777
-8.11179
-8.12834
-8.14748
-8.16928
-8.19372
-8.22081
-8.25045
-8.28249
-8.31668
-8.35275
-8.39035
-8.42919
-8.4689
-8.50915
-8.5496
-8.58992
-8.6298
-8.66897
-8.70716
-8.74414
-8.7797
-8.81366
-8.84586
-8.87616
-8.90446
-8.93063
-8.95462
-8.97633
-8.99574
-9.01278
-9.02744
-9.03967
-9.04949
-9.05684
-9.06176
-9.06423
-9.06427
-9.06187
-9.0571
-9.04993
-9.04043
-9.02863
-9.01459
-8.99835
-8.98
-8.95959
-8.93724
-8.913
-8.887
-8.85933
-8.83013
-8.79951
-8.7676
-8.73452
-8.70044
-8.66546
-8.62973
-8.59335
-8.55644
-8.51909
-8.48139
-8.44338
-8.40511
-8.36659
-8.32778
-8.28859
-8.2489
-8.20853
-8.16714
-8.12444
-8.07995
-8.03384
-7.98521
-7.93364
-7.8783
-7.81862
-7.7536
-7.68244
-7.60397
-7.51714
-7.4207
-7.31334
-7.19378
-7.0604
-6.91195
-6.74677
-6.56372
-6.36111
-6.13781
-5.89214
-5.62298
-5.32871
-5.00843
-4.66081
-4.28526
-3.88103
-3.44795
-2.98574
-2.49474
-1.97543
-1.42889
-0.856337
-0.259524
0.359494
0.998167
1.65351
2.32219
3.00048
3.68456
4.37029
5.05365
5.73049
6.39697
7.0493
7.68421
8.29869
8.89029
9.45699
9.99736
10.5103
10.9952
11.4517
11.8799
12.28
12.6526
12.9986
13.3187
13.614
13.8853
14.1339
14.3609
14.5676
14.7554
14.9256
15.0795
15.2183
15.3433
15.4556
15.5564
15.6465
15.7269
15.7986
15.8624
15.919
15.9691
16.0133
16.0524
16.0869
16.1173
16.1442
16.1681
16.1895
16.2091
16.2277
16.2462
16.2658
16.2879
16.3147
16.3451
16.387
16.4024
-8.00653
-8.0182
-8.03235
-8.04324
-8.05094
-8.05608
-8.05913
-8.06061
-8.06102
-8.06079
-8.06042
-8.06037
-8.06116
-8.06318
-8.06686
-8.0725
-8.0804
-8.09069
-8.1035
-8.11883
-8.13672
-8.15718
-8.18021
-8.20575
-8.23372
-8.26398
-8.29634
-8.33055
-8.36636
-8.40345
-8.44154
-8.48029
-8.51941
-8.55861
-8.59758
-8.63606
-8.6738
-8.71055
-8.74611
-8.78027
-8.81288
-8.84378
-8.87284
-8.89994
-8.92498
-8.94789
-8.96858
-8.98701
-9.00311
-9.01686
-9.02821
-9.03716
-9.04366
-9.04773
-9.04935
-9.04854
-9.04528
-9.03963
-9.03157
-9.02116
-9.00844
-8.99346
-8.97626
-8.95696
-8.93558
-8.91226
-8.88706
-8.86011
-8.83153
-8.80144
-8.76997
-8.73728
-8.70351
-8.6688
-8.63331
-8.5972
-8.56058
-8.52359
-8.48636
-8.44897
-8.4115
-8.37401
-8.33651
-8.29897
-8.26132
-8.22341
-8.1851
-8.14611
-8.10585
-8.06455
-8.0215
-7.97644
-7.92857
-7.87733
-7.82192
-7.76156
-7.69525
-7.62198
-7.54062
-7.44994
-7.34864
-7.23526
-7.10835
-6.96639
-6.80799
-6.63171
-6.4361
-6.21968
-5.98101
-5.71863
-5.43115
-5.11739
-4.77629
-4.40701
-4.00889
-3.58153
-3.12473
-2.63865
-2.12381
-1.58113
-1.01182
-0.417571
0.199556
0.836985
1.49175
2.16047
2.83946
3.52479
4.21234
4.89799
5.57758
6.24716
6.903
7.54174
8.1604
8.75649
9.32799
9.87334
10.3914
10.8815
11.3431
11.7763
12.1814
12.5588
12.9094
13.2339
13.5333
13.8087
14.0612
14.292
14.5024
14.6937
14.8674
15.0245
15.1666
15.2946
15.4099
15.5133
15.6061
15.689
15.7631
15.829
15.8876
15.9395
15.9855
16.0261
16.062
16.0936
16.1216
16.1465
16.1687
16.1889
16.2077
16.2259
16.2444
16.2642
16.2866
16.3094
16.338
16.3325
-7.97992
-7.99497
-8.0142
-8.02859
-8.03883
-8.04613
-8.05111
-8.05434
-8.05641
-8.05784
-8.05915
-8.06079
-8.06327
-8.06697
-8.07231
-8.07957
-8.08903
-8.10082
-8.11507
-8.13181
-8.15105
-8.17275
-8.19687
-8.2233
-8.25193
-8.28258
-8.31507
-8.34916
-8.3846
-8.42111
-8.45842
-8.49624
-8.5343
-8.57233
-8.61005
-8.64723
-8.68362
-8.71902
-8.75323
-8.78606
-8.81736
-8.84699
-8.87481
-8.90072
-8.92461
-8.94641
-8.96602
-8.9834
-8.99848
-9.01123
-9.02159
-9.02956
-9.03508
-9.03817
-9.03878
-9.03696
-9.03266
-9.02595
-9.01681
-9.0053
-8.99144
-8.97531
-8.95696
-8.93647
-8.91391
-8.88942
-8.86306
-8.83499
-8.8053
-8.77417
-8.74173
-8.70814
-8.67356
-8.63816
-8.60212
-8.56558
-8.52873
-8.49169
-8.45462
-8.41762
-8.38079
-8.3442
-8.30788
-8.27182
-8.23592
-8.2001
-8.16419
-8.12783
-8.09081
-8.05269
-8.01343
-7.97241
-7.9288
-7.88216
-7.83159
-7.77637
-7.71543
-7.64781
-7.57235
-7.48777
-7.39282
-7.28585
-7.16558
-7.03024
-6.87872
-6.70923
-6.52058
-6.3109
-6.07903
-5.82318
-5.54225
-5.23472
-4.89975
-4.5362
-4.14356
-3.72113
-3.26888
-2.78677
-2.27536
-1.73538
-1.16809
-0.575077
0.0415128
0.679113
1.33473
2.00492
2.68602
3.37394
4.06462
4.75374
5.43724
6.11099
6.77135
7.41485
8.03853
8.63977
9.2165
9.76711
10.2904
10.7855
11.2521
11.69
12.0995
12.4812
12.8357
13.164
13.4669
13.7457
14.0014
14.2352
14.4486
14.6428
14.8192
14.979
15.1236
15.2541
15.3716
15.4774
15.5722
15.6573
15.7333
15.801
15.8613
15.9148
15.9622
16.0041
16.0411
16.0738
16.1027
16.1282
16.1508
16.1712
16.1898
16.2073
16.2244
16.2414
16.2591
16.2743
16.2915
16.2692
-7.95752
-7.97531
-7.99869
-8.01606
-8.02863
-8.03809
-8.04511
-8.05026
-8.05422
-8.05752
-8.06071
-8.06423
-8.06857
-8.07409
-8.08119
-8.09013
-8.10116
-8.11441
-8.13003
-8.148
-8.16838
-8.19107
-8.21603
-8.24311
-8.2722
-8.30309
-8.33559
-8.36948
-8.40452
-8.44045
-8.47702
-8.51397
-8.55104
-8.58798
-8.62456
-8.66054
-8.69571
-8.72986
-8.76283
-8.79443
-8.82452
-8.85295
-8.87961
-8.90439
-8.92717
-8.94788
-8.96644
-8.98278
-8.99682
-9.00854
-9.01787
-9.0248
-9.02926
-9.03128
-9.03079
-9.02783
-9.02237
-9.01446
-9.00408
-8.9913
-8.97613
-8.95867
-8.93896
-8.9171
-8.89317
-8.86731
-8.8396
-8.81021
-8.77925
-8.74692
-8.71335
-8.67874
-8.64326
-8.6071
-8.57044
-8.53348
-8.49639
-8.45935
-8.4225
-8.38599
-8.34992
-8.31438
-8.27942
-8.24502
-8.21114
-8.17766
-8.14442
-8.11116
-8.07743
-8.04326
-8.00813
-7.97148
-7.93268
-7.89103
-7.84583
-7.79615
-7.74106
-7.67951
-7.61032
-7.53223
-7.44379
-7.34355
-7.22993
-7.10149
-6.95673
-6.79418
-6.61224
-6.40935
-6.18395
-5.93459
-5.65985
-5.35837
-5.02901
-4.67077
-4.28289
-3.86481
-3.41632
-2.93742
-2.42852
-1.89033
-1.32403
-0.731264
-0.114176
0.524643
1.18213
1.85485
2.53899
3.23049
3.92515
4.61866
5.30683
5.98559
6.65117
7.30006
7.92918
8.53589
9.11803
9.67394
10.2023
10.7024
11.1736
11.616
12.0296
12.4152
12.7732
13.1048
13.4108
13.6924
13.9508
14.1873
14.4032
14.5997
14.7784
14.9404
15.087
15.2195
15.339
15.4466
15.5433
15.63
15.7076
15.777
15.8387
15.8936
15.9423
15.9853
16.0234
16.0569
16.0864
16.1124
16.1353
16.1556
16.1738
16.1902
16.2054
16.2194
16.2323
16.2403
16.2476
16.2119
-7.94175
-7.96154
-7.98773
-8.00725
-8.02168
-8.03301
-8.04187
-8.04886
-8.05463
-8.05976
-8.06478
-8.07013
-8.07626
-8.08351
-8.09226
-8.10274
-8.11519
-8.12973
-8.14649
-8.16548
-8.18672
-8.21012
-8.23563
-8.2631
-8.2924
-8.32333
-8.3557
-8.3893
-8.42389
-8.45923
-8.49509
-8.53122
-8.56739
-8.60335
-8.6389
-8.67381
-8.7079
-8.74095
-8.77282
-8.80333
-8.83234
-8.85971
-8.88533
-8.90907
-8.93084
-8.95055
-8.96811
-8.98345
-8.99649
-9.0072
-9.01549
-9.02136
-9.02474
-9.02562
-9.02396
-9.01978
-9.01305
-9.00381
-8.99206
-8.97786
-8.96123
-8.94227
-8.92103
-8.89761
-8.87213
-8.8447
-8.81546
-8.78457
-8.75218
-8.71848
-8.68364
-8.64788
-8.61138
-8.57438
-8.53706
-8.49965
-8.46233
-8.42531
-8.38876
-8.35283
-8.31765
-8.28332
-8.24991
-8.2174
-8.18577
-8.15491
-8.12468
-8.09476
-8.06497
-8.03478
-8.00425
-7.9724
-7.93878
-7.90256
-7.86311
-7.8194
-7.77056
-7.71548
-7.65291
-7.58164
-7.49997
-7.40665
-7.29985
-7.17843
-7.04053
-6.88493
-6.70969
-6.51354
-6.29455
-6.05152
-5.78268
-5.48692
-5.16273
-4.80931
-4.42563
-4.01132
-3.5659
-3.0895
-2.58229
-2.04507
-1.47892
-0.885567
-0.267152
0.373686
1.03383
1.70981
2.39772
3.09352
3.79283
4.49144
5.18496
5.86935
6.54066
7.19534
7.83019
8.44253
9.03014
9.59129
10.1247
10.6295
11.1051
11.5515
11.969
12.358
12.7193
13.0537
13.3625
13.6466
13.9074
14.1461
14.3641
14.5626
14.7432
14.9071
15.0555
15.1897
15.3108
15.42
15.5181
15.6063
15.6853
15.7559
15.819
15.8751
15.9249
15.969
16.0079
16.0421
16.0722
16.0986
16.1215
16.1416
16.1591
16.1743
16.1875
16.1983
16.2065
16.2079
16.2067
16.16
-7.9339
-7.9548
-7.9823
-8.00301
-8.0187
-8.03139
-8.04172
-8.05022
-8.05754
-8.06426
-8.07088
-8.07782
-8.08551
-8.09426
-8.10441
-8.11617
-8.12978
-8.14534
-8.16297
-8.18268
-8.20449
-8.22832
-8.25411
-8.28171
-8.31099
-8.34177
-8.37387
-8.40706
-8.44113
-8.47587
-8.51103
-8.5464
-8.58175
-8.61685
-8.6515
-8.68549
-8.71864
-8.75077
-8.7817
-8.81128
-8.83938
-8.86584
-8.89056
-8.91341
-8.93429
-8.9531
-8.96976
-8.98418
-8.99628
-9.00601
-9.01329
-9.0181
-9.02036
-9.02007
-9.01718
-9.01171
-9.00361
-8.99294
-8.97968
-8.96392
-8.94567
-8.92504
-8.90208
-8.87694
-8.84971
-8.82054
-8.78958
-8.75701
-8.72301
-8.68778
-8.65153
-8.61449
-8.57688
-8.53894
-8.5009
-8.463
-8.42546
-8.38849
-8.35229
-8.31704
-8.28288
-8.24992
-8.21824
-8.18785
-8.15873
-8.13076
-8.10383
-8.07768
-8.0518
-8.02635
-8.00052
-7.97393
-7.94577
-7.91541
-7.88201
-7.84468
-7.80243
-7.75412
-7.69855
-7.63422
-7.55967
-7.47328
-7.37362
-7.25915
-7.12837
-6.9796
-6.81124
-6.62159
-6.40902
-6.17196
-5.90888
-5.61835
-5.29904
-4.94988
-4.57001
-4.15885
-3.716
-3.24141
-2.7353
-2.19838
-1.63181
-1.0373
-0.417026
0.226335
0.88964
1.56936
2.26159
2.96221
3.66683
4.37108
5.07054
5.76099
6.4384
7.09911
7.73984
8.35786
8.9509
9.51719
10.0554
10.5646
11.0444
11.4946
11.9155
12.3077
12.6718
13.0089
13.32
13.6064
13.8692
14.1099
14.3297
14.53
14.7122
14.8777
15.0276
15.1633
15.2859
15.3964
15.4958
15.5852
15.6654
15.7373
15.8014
15.8586
15.9094
15.9544
15.9941
16.029
16.0596
16.0862
16.1092
16.1289
16.1456
16.1594
16.1704
16.178
16.1817
16.1771
16.1685
16.113
-7.93406
-7.95517
-7.98257
-8.00355
-8.01982
-8.03329
-8.04456
-8.05412
-8.0626
-8.07053
-8.07839
-8.08658
-8.09548
-8.10538
-8.1166
-8.12931
-8.14375
-8.16
-8.1782
-8.19832
-8.22041
-8.24439
-8.2702
-8.2977
-8.32677
-8.35723
-8.38892
-8.42162
-8.45514
-8.48925
-8.52375
-8.5584
-8.59301
-8.62736
-8.66124
-8.69447
-8.72685
-8.75821
-8.78839
-8.81722
-8.84458
-8.8703
-8.89428
-8.91639
-8.93652
-8.95457
-8.97043
-8.98402
-8.99525
-9.00406
-9.01035
-9.01411
-9.01524
-9.01374
-9.00956
-9.0027
-8.99313
-8.9809
-8.96601
-8.94852
-8.92849
-8.90601
-8.88117
-8.8541
-8.82492
-8.79383
-8.76096
-8.72654
-8.69076
-8.65385
-8.61604
-8.57759
-8.53876
-8.49981
-8.46099
-8.42258
-8.38481
-8.34793
-8.31215
-8.27768
-8.24466
-8.21323
-8.18348
-8.15542
-8.12904
-8.10424
-8.0809
-8.05867
-8.03738
-8.01655
-7.99596
-7.97489
-7.95252
-7.92828
-7.90124
-7.87054
-7.83516
-7.79386
-7.74544
-7.68819
-7.62083
-7.5415
-7.44906
-7.34162
-7.21793
-7.07594
-6.91432
-6.731
-6.52464
-6.29328
-6.03566
-5.75001
-5.43523
-5.08998
-4.71357
-4.30518
-3.86454
-3.39136
-2.88599
-2.34904
-1.78179
-1.18587
-0.56347
0.0827271
0.749586
1.43349
2.13058
2.83653
3.54699
4.25731
4.96309
5.65985
6.34357
7.01039
7.65703
8.28068
8.87902
9.45026
9.99302
10.5064
10.99
11.4437
11.8678
12.2628
12.6295
12.9689
13.2822
13.5705
13.8351
14.0774
14.2988
14.5007
14.6844
14.8512
15.0025
15.1395
15.2633
15.375
15.4757
15.5662
15.6475
15.7204
15.7855
15.8436
15.8954
15.9412
15.9817
16.0172
16.0481
16.0749
16.0978
16.1171
16.1329
16.1453
16.1541
16.1587
16.1581
16.148
16.1331
16.0703
-7.94148
-7.96195
-7.98809
-8.00854
-8.02472
-8.03833
-8.04997
-8.06008
-8.06924
-8.07793
-8.0866
-8.09561
-8.10532
-8.11598
-8.12789
-8.14119
-8.15611
-8.17273
-8.19116
-8.2114
-8.23349
-8.25735
-8.28295
-8.31014
-8.33883
-8.36883
-8.4
-8.43214
-8.46507
-8.49857
-8.53243
-8.56643
-8.60038
-8.63408
-8.66732
-8.69992
-8.73169
-8.76246
-8.79207
-8.82034
-8.84713
-8.87231
-8.89573
-8.91726
-8.93679
-8.9542
-8.96939
-8.98224
-8.99266
-9.00059
-9.00591
-9.0086
-9.00858
-9.00582
-9.00027
-8.99193
-8.98077
-8.96685
-8.95015
-8.93078
-8.90878
-8.88427
-8.85733
-8.82814
-8.79683
-8.76361
-8.72865
-8.69218
-8.65445
-8.6157
-8.57619
-8.53622
-8.49607
-8.45603
-8.4164
-8.37745
-8.33947
-8.30272
-8.26744
-8.23384
-8.20211
-8.17237
-8.14473
-8.11922
-8.09581
-8.07443
-8.05491
-8.03699
-8.02028
-8.00466
-7.9895
-7.97412
-7.95784
-7.93989
-7.91944
-7.89557
-7.86716
-7.83304
-7.7917
-7.74171
-7.6814
-7.60935
-7.52394
-7.42365
-7.30677
-7.1716
-7.01638
-6.83937
-6.63885
-6.41313
-6.16061
-5.87978
-5.56929
-5.22795
-4.85484
-4.44922
-4.01062
-3.5388
-3.03401
-2.49691
-1.92874
-1.33112
-0.706228
-0.0567435
0.614115
1.30272
2.00508
2.71682
3.43341
4.15012
4.86236
5.56559
6.25559
6.92851
7.58096
8.21006
8.81348
9.38939
9.9364
10.4537
10.9407
11.3976
11.8245
12.222
12.591
12.9325
13.2476
13.5376
13.8039
14.0477
14.2705
14.4737
14.6587
14.8268
14.9793
15.1175
15.2425
15.3553
15.457
15.5486
15.6309
15.7047
15.7708
15.8299
15.8824
15.9291
15.9702
16.0062
16.0375
16.0644
16.0872
16.106
16.1209
16.1319
16.1386
16.1402
16.1357
16.1206
16.1003
16.0315
-7.95488
-7.97407
-7.99811
-8.0173
-8.03275
-8.04591
-8.05735
-8.06748
-8.0768
-8.08576
-8.09478
-8.10416
-8.11424
-8.12524
-8.13743
-8.15095
-8.16601
-8.18265
-8.20102
-8.22109
-8.24292
-8.26644
-8.29162
-8.31834
-8.3465
-8.37594
-8.40652
-8.43805
-8.47036
-8.50324
-8.5365
-8.56991
-8.6033
-8.63645
-8.66918
-8.7013
-8.73262
-8.76296
-8.79216
-8.82005
-8.84647
-8.87125
-8.89428
-8.91539
-8.93445
-8.95134
-8.96593
-8.97812
-8.98779
-8.99486
-8.99923
-9.00083
-8.9996
-8.9955
-8.98847
-8.97853
-8.96563
-8.94984
-8.93117
-8.90971
-8.88553
-8.85877
-8.82952
-8.79798
-8.7643
-8.72873
-8.69144
-8.65273
-8.61283
-8.57204
-8.53066
-8.48902
-8.44741
-8.40619
-8.36566
-8.32614
-8.28794
-8.25134
-8.2166
-8.18397
-8.15363
-8.12573
-8.10038
-8.07761
-8.0574
-8.03967
-8.02424
-8.01083
-7.99918
-7.98876
-7.97934
-7.96993
-7.95992
-7.94849
-7.93482
-7.91794
-7.89664
-7.86977
-7.83564
-7.79294
-7.73981
-7.67505
-7.59672
-7.50356
-7.39348
-7.26509
-7.11625
-6.94552
-6.75082
-6.53075
-6.28335
-6.00735
-5.7011
-5.36361
-4.99367
-4.59067
-4.15386
-3.68313
-3.17857
-2.64097
-2.07144
-1.47167
-0.843823
-0.190619
0.484639
1.1783
1.88619
2.60394
3.32674
4.04989
4.76854
5.47814
6.17428
6.85308
7.51109
8.14537
8.75355
9.33375
9.88467
10.4054
10.8956
11.3553
11.7847
12.1845
12.5555
12.8987
13.2155
13.507
13.7747
14.0198
14.2439
14.4483
14.6344
14.8037
14.9574
15.0966
15.2227
15.3366
15.4393
15.5319
15.6152
15.69
15.757
15.8169
15.8703
15.9177
15.9594
15.9959
16.0275
16.0545
16.0771
16.0955
16.1095
16.1191
16.1238
16.1226
16.1145
16.0951
16.0699
15.9964
-7.97284
-7.99029
-8.01167
-8.02904
-8.04321
-8.05538
-8.06607
-8.07567
-8.08464
-8.09336
-8.10222
-8.11149
-8.12149
-8.1324
-8.14448
-8.15784
-8.17267
-8.18903
-8.20704
-8.22668
-8.24802
-8.27099
-8.29558
-8.32167
-8.3492
-8.37799
-8.40791
-8.4388
-8.47047
-8.50273
-8.53539
-8.56827
-8.60118
-8.6339
-8.66625
-8.69803
-8.72905
-8.75912
-8.78808
-8.81573
-8.84192
-8.86646
-8.88922
-8.91001
-8.9287
-8.94514
-8.95919
-8.97074
-8.97965
-8.98583
-8.98916
-8.98958
-8.987
-8.98138
-8.97268
-8.9609
-8.94602
-8.92812
-8.9072
-8.88339
-8.85674
-8.82743
-8.79556
-8.76135
-8.725
-8.68675
-8.64685
-8.6056
-8.56328
-8.52022
-8.47677
-8.43326
-8.39007
-8.34754
-8.30605
-8.26593
-8.22751
-8.19112
-8.15702
-8.12549
-8.0967
-8.07086
-8.04802
-8.02828
-8.01157
-7.99779
-7.98679
-7.9783
-7.97178
-7.96725
-7.96375
-7.96071
-7.95728
-7.95269
-7.94609
-7.93641
-7.92252
-7.90298
-7.87636
-7.84096
-7.79531
-7.73777
-7.66678
-7.5806
-7.47753
-7.35573
-7.2134
-7.04873
-6.85992
-6.64521
-6.40287
-6.13134
-5.82918
-5.49516
-5.12815
-4.7273
-4.29192
-3.82178
-3.31704
-2.77844
-2.20711
-1.60476
-0.973601
-0.316415
0.363488
1.06231
1.77581
2.49948
3.22845
3.95784
4.6827
5.3983
6.1002
6.78441
7.44746
8.08638
8.69877
9.28276
9.83706
10.3608
10.8538
11.3158
11.7474
12.1491
12.5218
12.8666
13.1848
13.4777
13.7465
13.9929
14.2181
14.4236
14.6109
14.7813
14.936
15.0763
15.2034
15.3183
15.4221
15.5158
15.6001
15.6758
15.7437
15.8045
15.8587
15.9068
15.9491
15.9861
16.018
16.0451
16.0675
16.0854
16.0986
16.1068
16.1096
16.1058
16.0944
16.0712
16.0418
15.9644
-7.99394
-8.00937
-8.0278
-8.04294
-8.05538
-8.06604
-8.07546
-8.084
-8.09207
-8.10002
-8.1082
-8.11687
-8.12631
-8.13669
-8.14823
-8.16105
-8.17531
-8.19106
-8.20842
-8.22737
-8.24799
-8.27022
-8.29405
-8.31936
-8.3461
-8.37413
-8.40332
-8.43351
-8.46453
-8.49619
-8.52832
-8.56073
-8.59322
-8.62559
-8.65764
-8.68917
-8.72
-8.74991
-8.77873
-8.80624
-8.83229
-8.85666
-8.87919
-8.89971
-8.91804
-8.93403
-8.94751
-8.95835
-8.9664
-8.97157
-8.97371
-8.97276
-8.96863
-8.96127
-8.95064
-8.93676
-8.91962
-8.89928
-8.87578
-8.84924
-8.81976
-8.78751
-8.75267
-8.71546
-8.67611
-8.6349
-8.59211
-8.54807
-8.50311
-8.4576
-8.41191
-8.36645
-8.32159
-8.27774
-8.23532
-8.19464
-8.15614
-8.12008
-8.08684
-8.05663
-8.02971
-8.0062
-7.98626
-7.96987
-7.95703
-7.94757
-7.94146
-7.93812
-7.93753
-7.93891
-7.94187
-7.94549
-7.94895
-7.95147
-7.95217
-7.94988
-7.94352
-7.93144
-7.91234
-7.8843
-7.84608
-7.79573
-7.73194
-7.65262
-7.55636
-7.44095
-7.30491
-7.14603
-6.96281
-6.75313
-6.51551
-6.24809
-5.94965
-5.61866
-5.25414
-4.85492
-4.4205
-3.95048
-3.44519
-2.90522
-2.33184
-1.72675
-1.09223
-0.431103
0.253349
0.957171
1.67612
2.40541
3.1402
3.87534
4.60584
5.3268
6.03375
6.72264
7.38995
8.03274
8.64859
9.23569
9.79274
10.319
10.8141
11.2781
11.7114
12.1147
12.4889
12.8351
13.1545
13.4485
13.7185
13.966
14.1923
14.3989
14.5873
14.7587
14.9145
15.0559
15.1841
15.3001
15.405
15.4997
15.585
15.6617
15.7306
15.7923
15.8473
15.896
15.939
15.9764
16.0087
16.0359
16.0582
16.0756
16.088
16.095
16.096
16.0899
16.0756
16.049
16.0159
15.9356
-8.01788
-8.03121
-8.04663
-8.05928
-8.06951
-8.07814
-8.0857
-8.09256
-8.0991
-8.10566
-8.11257
-8.12005
-8.12838
-8.13769
-8.1482
-8.15998
-8.17321
-8.18791
-8.20421
-8.22209
-8.24164
-8.26279
-8.28555
-8.30982
-8.33556
-8.36262
-8.39092
-8.42028
-8.45056
-8.48156
-8.51313
-8.54505
-8.57714
-8.60918
-8.64099
-8.67232
-8.70302
-8.73281
-8.76154
-8.78895
-8.81487
-8.83906
-8.86135
-8.88153
-8.89943
-8.91486
-8.92764
-8.93763
-8.94466
-8.94861
-8.94934
-8.94678
-8.94083
-8.93146
-8.9186
-8.90232
-8.88256
-8.85946
-8.83303
-8.80345
-8.77081
-8.73534
-8.69723
-8.65673
-8.61409
-8.56965
-8.52372
-8.4767
-8.42894
-8.38088
-8.3329
-8.28547
-8.23898
-8.19393
-8.15065
-8.10961
-8.07125
-8.0358
-8.00374
-7.97518
-7.95051
-7.92974
-7.91312
-7.90051
-7.89196
-7.88744
-7.88651
-7.88904
-7.89442
-7.90234
-7.91201
-7.92253
-7.93314
-7.94299
-7.95108
-7.95636
-7.95743
-7.95294
-7.94114
-7.92053
-7.88941
-7.84622
-7.7892
-7.71665
-7.62671
-7.51755
-7.38725
-7.23396
-7.05577
-6.85084
-6.61738
-6.35377
-6.05851
-5.73021
-5.36765
-4.96976
-4.53591
-4.06587
-3.5599
-3.01864
-2.44331
-1.83567
-1.19802
-0.533167
0.155473
0.863934
1.58777
2.32213
3.06196
3.80204
4.53725
5.26265
5.97369
6.6663
7.33696
7.98272
8.60121
9.19066
9.74981
10.2779
10.7747
11.2403
11.675
12.0796
12.455
12.8024
13.123
13.4181
13.6893
13.9378
14.1653
14.373
14.5625
14.7351