/*--------------------------------*- C++ -*----------------------------------*\
  =========                 |
  \\      /  F ield         | OpenFOAM: The Open Source CFD Toolbox
   \\    /   O peration     | Website:  https://openfoam.org
    \\  /    A nd           | Version:  13
     \\/     M anipulation  |
\*---------------------------------------------------------------------------*/
FoamFile
{
    format      ascii;
    class       surfaceScalarField;
    location    "100";
    object      phi;
}
// * * * * * * * * * * * * * * * * * * * * * * * * * * * * * * * * * * * * * //

dimensions      [0 3 -1 0 0 0 0];

internalField   nonuniform List<scalar> 
24170
(
3.1248e-06
6.36087e-08
3.0434e-06
8.1394e-08
2.97231e-06
7.10818e-08
2.905e-06
6.73069e-08
2.84131e-06
6.36813e-08
2.78418e-06
5.713e-08
2.73478e-06
4.93946e-08
2.69259e-06
4.21817e-08
2.65658e-06
3.60026e-08
2.62571e-06
3.08621e-08
2.599e-06
2.67105e-08
2.57555e-06
2.34452e-08
2.55461e-06
2.09328e-08
2.53544e-06
1.91616e-08
2.51736e-06
1.80799e-08
2.49825e-06
1.91096e-08
2.47808e-06
2.01704e-08
4.05729e-08
2.4375e-06
3.45671e-06
2.41448e-08
3.45866e-06
7.94414e-08
3.45e-06
7.97425e-08
3.43744e-06
7.98585e-08
3.42234e-06
7.87761e-08
3.40516e-06
7.431e-08
3.38612e-06
6.8421e-08
3.36578e-06
6.25216e-08
3.34475e-06
5.70246e-08
3.32361e-06
5.19984e-08
3.30282e-06
4.74971e-08
3.28264e-06
4.3615e-08
3.26326e-06
4.03117e-08
3.24465e-06
3.77649e-08
3.22692e-06
3.58144e-08
3.2099e-06
3.6129e-08
3.19405e-06
3.60155e-08
4.86094e-08
3.18602e-06
3.66856e-06
1.81009e-08
3.68008e-06
6.79179e-08
3.68624e-06
7.35843e-08
3.68997e-06
7.61191e-08
3.6912e-06
7.75399e-08
3.68991e-06
7.56026e-08
3.6865e-06
7.18186e-08
3.68145e-06
6.75702e-08
3.67511e-06
6.33612e-08
3.66778e-06
5.93289e-08
3.6597e-06
5.55712e-08
3.65109e-06
5.22167e-08
3.64211e-06
4.92922e-08
3.63286e-06
4.70141e-08
3.62333e-06
4.5335e-08
3.61404e-06
4.54204e-08
3.604e-06
4.60562e-08
5.22868e-08
3.60032e-06
3.92607e-06
1.74156e-08
3.93641e-06
5.75823e-08
3.9431e-06
6.68898e-08
3.94854e-06
7.06778e-08
3.95278e-06
7.32916e-08
3.95554e-06
7.2844e-08
3.95701e-06
7.03392e-08
3.95745e-06
6.71253e-08
3.95704e-06
6.37721e-08
3.9559e-06
6.04618e-08
3.95416e-06
5.73071e-08
3.95192e-06
5.44543e-08
3.94925e-06
5.19635e-08
3.94622e-06
5.00345e-08
3.94286e-06
4.87001e-08
3.93962e-06
4.86515e-08
3.93633e-06
4.93467e-08
5.23698e-08
3.93625e-06
4.20823e-06
1.63141e-08
4.21613e-06
4.96825e-08
4.22187e-06
6.11445e-08
4.22696e-06
6.55852e-08
4.23165e-06
6.85955e-08
4.23553e-06
6.89614e-08
4.23857e-06
6.72896e-08
4.2409e-06
6.47919e-08
4.24262e-06
6.20513e-08
4.24381e-06
5.92704e-08
4.24454e-06
5.65729e-08
4.24489e-06
5.4105e-08
4.2449e-06
5.19509e-08
4.24466e-06
5.02729e-08
4.24422e-06
4.91314e-08
4.24399e-06
4.8888e-08
4.24407e-06
4.926e-08
5.05662e-08
4.24587e-06
4.51067e-06
1.4729e-08
4.51689e-06
4.34632e-08
4.52216e-06
5.58727e-08
4.52697e-06
6.07755e-08
4.53164e-06
6.39136e-08
4.53583e-06
6.47722e-08
4.53941e-06
6.37043e-08
4.54245e-06
6.17471e-08
4.54503e-06
5.94749e-08
4.54719e-06
5.71041e-08
4.54899e-06
5.47678e-08
4.55049e-06
5.26042e-08
4.55173e-06
5.07076e-08
4.5528e-06
4.91997e-08
4.5538e-06
4.81363e-08
4.55501e-06
4.76757e-08
4.55664e-06
4.7629e-08
4.78281e-08
4.55937e-06
4.83429e-06
1.3158e-08
4.8396e-06
3.81547e-08
4.84471e-06
5.07538e-08
4.84939e-06
5.60976e-08
4.85398e-06
5.93182e-08
4.85824e-06
6.05103e-08
4.86203e-06
5.99099e-08
4.86539e-06
5.83842e-08
4.86837e-06
5.64887e-08
4.87102e-06
5.44504e-08
4.87338e-06
5.24084e-08
4.87549e-06
5.04898e-08
4.87741e-06
4.87882e-08
4.87921e-06
4.739e-08
4.88102e-06
4.63315e-08
4.88304e-06
4.56545e-08
4.88547e-06
4.51957e-08
4.46632e-08
4.88863e-06
5.18102e-06
1.17204e-08
5.18571e-06
3.3457e-08
5.19069e-06
4.57755e-08
5.1953e-06
5.14877e-08
5.19983e-06
5.47821e-08
5.20413e-06
5.62119e-08
5.20804e-06
5.59908e-08
5.21159e-06
5.48295e-08
5.21483e-06
5.32527e-08
5.21778e-06
5.14965e-08
5.22048e-06
4.97011e-08
5.22298e-06
4.79836e-08
5.22534e-06
4.64292e-08
5.22763e-06
4.50975e-08
5.22996e-06
4.40032e-08
5.23248e-06
4.31269e-08
5.23535e-06
4.2323e-08
4.13304e-08
5.23869e-06
5.55267e-06
1.03866e-08
5.55685e-06
2.92754e-08
5.56162e-06
4.09963e-08
5.56618e-06
4.69255e-08
5.57069e-06
5.02734e-08
5.57502e-06
5.18719e-08
5.57905e-06
5.19634e-08
5.58275e-06
5.11206e-08
5.58618e-06
4.98238e-08
5.58936e-06
4.83143e-08
5.59233e-06
4.67315e-08
5.59513e-06
4.51821e-08
5.59781e-06
4.37411e-08
5.60046e-06
4.24486e-08
5.60316e-06
4.13032e-08
5.60602e-06
4.0261e-08
5.60914e-06
3.91992e-08
3.79182e-08
5.61255e-06
5.95102e-06
9.14053e-09
5.95475e-06
2.5546e-08
5.95929e-06
3.64525e-08
5.9638e-06
4.24168e-08
5.96828e-06
4.57836e-08
5.97266e-06
4.7493e-08
5.97678e-06
4.78353e-08
5.98063e-06
4.72694e-08
5.98423e-06
4.62211e-08
5.98761e-06
4.49309e-08
5.99081e-06
4.35348e-08
5.99386e-06
4.21299e-08
5.99681e-06
4.07803e-08
5.99975e-06
3.95146e-08
6.00273e-06
3.83228e-08
6.00583e-06
3.71563e-08
6.00911e-06
3.59188e-08
3.44727e-08
6.01255e-06
6.37797e-06
7.98302e-09
6.38131e-06
2.21994e-08
6.38561e-06
3.21505e-08
6.39005e-06
3.79734e-08
6.39452e-06
4.13121e-08
6.39893e-06
4.30813e-08
6.40314e-06
4.36132e-08
6.40713e-06
4.32811e-08
6.4109e-06
4.24521e-08
6.41447e-06
4.13565e-08
6.41787e-06
4.01262e-08
6.42115e-06
3.88486e-08
6.42435e-06
3.75792e-08
6.42752e-06
3.63393e-08
6.43073e-06
3.5118e-08
6.43401e-06
3.3873e-08
6.43739e-06
3.25353e-08
3.10164e-08
6.44084e-06
5.74175e-06
7.06667e-09
5.74432e-06
1.96299e-08
5.74776e-06
2.8702e-08
5.75146e-06
3.42771e-08
5.75522e-06
3.75492e-08
5.75896e-06
3.93336e-08
5.76259e-06
3.99787e-08
5.76606e-06
3.98083e-08
5.76937e-06
3.91415e-08
5.77253e-06
3.81931e-08
5.77556e-06
3.70891e-08
5.7785e-06
3.59098e-08
5.78137e-06
3.47045e-08
5.78422e-06
3.34927e-08
5.78707e-06
3.22646e-08
5.78995e-06
3.09888e-08
5.79287e-06
2.96149e-08
2.80916e-08
5.79579e-06
6.99913e-06
6.09372e-09
7.00185e-06
1.69084e-08
7.00559e-06
2.49575e-08
7.00972e-06
3.01404e-08
7.014e-06
3.32662e-08
7.01831e-06
3.50203e-08
7.02254e-06
3.57462e-08
7.02662e-06
3.57212e-08
7.03055e-06
3.5212e-08
7.03433e-06
3.44123e-08
7.03798e-06
3.34385e-08
7.04152e-06
3.23647e-08
7.04499e-06
3.1234e-08
7.04841e-06
3.00651e-08
7.05182e-06
2.88543e-08
7.05522e-06
2.75808e-08
7.05862e-06
2.62165e-08
2.47321e-08
7.06198e-06
8.53187e-06
5.07025e-09
8.53471e-06
1.40616e-08
8.53872e-06
2.09426e-08
8.5433e-06
2.55659e-08
8.54812e-06
2.84398e-08
8.55304e-06
3.00965e-08
8.55793e-06
3.08533e-08
8.56271e-06
3.09408e-08
8.56734e-06
3.05747e-08
8.57183e-06
2.99178e-08
8.57619e-06
2.9078e-08
8.58043e-06
2.81177e-08
8.58459e-06
2.70784e-08
8.58867e-06
2.59772e-08
8.5927e-06
2.48185e-08
8.59669e-06
2.35933e-08
8.60061e-06
2.22898e-08
2.08984e-08
8.60444e-06
1.04003e-05
4.00493e-09
1.04032e-05
1.11069e-08
1.04075e-05
1.66754e-08
1.04125e-05
2.05585e-08
1.04179e-05
2.30462e-08
1.04235e-05
2.4518e-08
1.04291e-05
2.52352e-08
1.04346e-05
2.53872e-08
1.04401e-05
2.51352e-08
1.04454e-05
2.46123e-08
1.04505e-05
2.39051e-08
1.04556e-05
2.30729e-08
1.04605e-05
2.21471e-08
1.04653e-05
2.115e-08
1.04701e-05
2.0088e-08
1.04747e-05
1.89661e-08
1.04792e-05
1.77817e-08
1.65382e-08
1.04835e-05
1.26779e-05
2.90041e-09
1.2681e-05
8.03705e-09
1.26855e-05
1.21503e-08
1.26909e-05
1.51056e-08
1.26969e-05
1.70511e-08
1.27032e-05
1.8225e-08
1.27096e-05
1.88186e-08
1.2716e-05
1.89708e-08
1.27224e-05
1.8797e-08
1.27286e-05
1.839e-08
1.27347e-05
1.78198e-08
1.27406e-05
1.71302e-08
1.27464e-05
1.63515e-08
1.2752e-05
1.55004e-08
1.27575e-05
1.4591e-08
1.27629e-05
1.36301e-08
1.2768e-05
1.26272e-08
1.15851e-08
1.2773e-05
1.54543e-05
1.74496e-09
1.54576e-05
4.80254e-09
1.54624e-05
7.30486e-09
1.54684e-05
9.1417e-09
1.5475e-05
1.03725e-08
1.54821e-05
1.11201e-08
1.54895e-05
1.14941e-08
1.54968e-05
1.15781e-08
1.55042e-05
1.14399e-08
1.55115e-05
1.11349e-08
1.55186e-05
1.07064e-08
1.55255e-05
1.01849e-08
1.55323e-05
9.59083e-09
1.55388e-05
8.93873e-09
1.55452e-05
8.2401e-09
1.55513e-05
7.50501e-09
1.55572e-05
6.74304e-09
5.95933e-09
1.55628e-05
1.88389e-05
4.96417e-10
1.88424e-05
1.27832e-09
1.88477e-05
1.96283e-09
1.88544e-05
2.47151e-09
1.8862e-05
2.80766e-09
1.88701e-05
2.9972e-09
1.88785e-05
3.0604e-09
1.88871e-05
3.01681e-09
1.88956e-05
2.88425e-09
1.89041e-05
2.67866e-09
1.89124e-05
2.41201e-09
1.89205e-05
2.0951e-09
1.89283e-05
1.73604e-09
1.89359e-05
1.34219e-09
1.89432e-05
9.19785e-10
1.89502e-05
4.7568e-10
1.8957e-05
1.72825e-11
-4.53008e-10
1.89634e-05
2.29648e-05
-9.49169e-10
2.29689e-05
-2.82423e-09
2.29751e-05
-4.29467e-09
2.2983e-05
-5.38173e-09
2.29919e-05
-6.11902e-09
2.30015e-05
-6.59873e-09
2.30115e-05
-6.90545e-09
2.30216e-05
-7.09895e-09
2.30317e-05
-7.21235e-09
2.30416e-05
-7.28247e-09
2.30514e-05
-7.33074e-09
2.30608e-05
-7.37698e-09
2.307e-05
-7.42572e-09
2.30788e-05
-7.48473e-09
2.30873e-05
-7.55232e-09
2.30954e-05
-7.6316e-09
2.31031e-05
-7.71683e-09
-7.81272e-09
2.31105e-05
1.68118e-05
-2.08589e-09
1.6815e-05
-6.01712e-09
1.68199e-05
-9.16669e-09
1.6826e-05
-1.14394e-08
1.68327e-05
-1.29123e-08
1.684e-05
-1.38121e-08
1.68474e-05
-1.43342e-08
1.68549e-05
-1.45761e-08
1.68623e-05
-1.46242e-08
1.68695e-05
-1.45423e-08
1.68766e-05
-1.43915e-08
1.68834e-05
-1.41993e-08
1.689e-05
-1.39932e-08
1.68963e-05
-1.37794e-08
1.69023e-05
-1.35721e-08
1.6908e-05
-1.33694e-08
1.69134e-05
-1.3178e-08
-1.29954e-08
1.69186e-05
1.46357e-05
-3.17667e-09
1.46388e-05
-9.1241e-09
1.46435e-05
-1.3918e-08
1.46493e-05
-1.72373e-08
1.46557e-05
-1.92659e-08
1.46623e-05
-2.04625e-08
1.46691e-05
-2.10944e-08
1.46758e-05
-2.13025e-08
1.46824e-05
-2.12123e-08
1.46888e-05
-2.09438e-08
1.46949e-05
-2.05696e-08
1.47009e-05
-2.01378e-08
1.47066e-05
-1.96757e-08
1.4712e-05
-1.92052e-08
1.47171e-05
-1.87373e-08
1.4722e-05
-1.82811e-08
1.47267e-05
-1.78373e-08
-1.74128e-08
1.47311e-05
1.27412e-05
-4.19737e-09
1.27443e-05
-1.22698e-08
1.27492e-05
-1.87838e-08
1.27548e-05
-2.29292e-08
1.27609e-05
-2.53029e-08
1.27671e-05
-2.66888e-08
1.27734e-05
-2.73488e-08
1.27795e-05
-2.74289e-08
1.27854e-05
-2.71372e-08
1.27911e-05
-2.66386e-08
1.27965e-05
-2.6022e-08
1.28017e-05
-2.5341e-08
1.28067e-05
-2.46285e-08
1.28114e-05
-2.39129e-08
1.28159e-05
-2.32044e-08
1.28201e-05
-2.25164e-08
1.28241e-05
-2.18472e-08
-2.12048e-08
1.28279e-05
1.10918e-05
-5.04708e-09
1.1095e-05
-1.55127e-08
1.11002e-05
-2.39456e-08
1.11058e-05
-2.85914e-08
1.11116e-05
-3.10819e-08
1.11175e-05
-3.25588e-08
1.11233e-05
-3.31449e-08
1.11289e-05
-3.30181e-08
1.11342e-05
-3.24808e-08
1.11393e-05
-3.17303e-08
1.11441e-05
-3.08597e-08
1.11487e-05
-2.99237e-08
1.1153e-05
-2.8968e-08
1.11571e-05
-2.80155e-08
1.1161e-05
-2.70868e-08
1.11647e-05
-2.6184e-08
1.11681e-05
-2.53148e-08
-2.44778e-08
1.11714e-05
9.65581e-06
-5.64389e-09
9.65926e-06
-1.89644e-08
9.66465e-06
-2.93387e-08
9.67018e-06
-3.41261e-08
9.67577e-06
-3.66798e-08
9.68138e-06
-3.81681e-08
9.68677e-06
-3.85377e-08
9.69186e-06
-3.81141e-08
9.69668e-06
-3.72997e-08
9.70123e-06
-3.62883e-08
9.70553e-06
-3.51593e-08
9.70958e-06
-3.39725e-08
9.71338e-06
-3.2775e-08
9.71696e-06
-3.1597e-08
9.72033e-06
-3.0452e-08
9.72349e-06
-2.93485e-08
9.72646e-06
-2.82873e-08
-2.72665e-08
9.72924e-06
8.4053e-06
-5.58918e-09
8.40964e-06
-2.33129e-08
8.41494e-06
-3.46398e-08
8.42002e-06
-3.92139e-08
8.42545e-06
-4.21108e-08
8.43092e-06
-4.36432e-08
8.43607e-06
-4.36878e-08
8.44084e-06
-4.28831e-08
8.44526e-06
-4.17306e-08
8.44938e-06
-4.04053e-08
8.45319e-06
-3.89766e-08
8.45673e-06
-3.75083e-08
8.46e-06
-3.6049e-08
8.46303e-06
-3.46262e-08
8.46583e-06
-3.32546e-08
8.46842e-06
-3.19417e-08
8.47082e-06
-3.06878e-08
-2.94935e-08
8.47304e-06
7.31457e-06
-2.87198e-09
7.3213e-06
-3.0053e-08
7.32693e-06
-4.02697e-08
7.33195e-06
-4.42346e-08
7.33742e-06
-4.75859e-08
7.34281e-06
-4.90352e-08
7.34774e-06
-4.86226e-08
7.3522e-06
-4.73407e-08
7.35621e-06
-4.57443e-08
7.35979e-06
-4.39896e-08
7.36297e-06
-4.21582e-08
7.36578e-06
-4.03202e-08
7.36826e-06
-3.85304e-08
7.37044e-06
-3.68098e-08
7.37235e-06
-3.51723e-08
7.37403e-06
-3.36227e-08
7.3755e-06
-3.21602e-08
-3.0778e-08
7.37679e-06
6.36261e-06
4.58623e-09
6.37246e-06
-3.99095e-08
6.38005e-06
-4.78662e-08
6.38671e-06
-5.08951e-08
6.39295e-06
-5.38224e-08
6.39818e-06
-5.42734e-08
6.4024e-06
-5.28451e-08
6.40582e-06
-5.0763e-08
6.40857e-06
-4.8501e-08
6.41073e-06
-4.61453e-08
6.41234e-06
-4.37691e-08
6.41347e-06
-4.1456e-08
6.41419e-06
-3.92511e-08
6.41455e-06
-3.71733e-08
6.41461e-06
-3.5234e-08
6.41442e-06
-3.34325e-08
6.41402e-06
-3.17695e-08
-3.02214e-08
6.41347e-06
5.54124e-06
8.81188e-09
5.55121e-06
-4.98877e-08
5.55953e-06
-5.61822e-08
5.56721e-06
-5.85767e-08
5.57346e-06
-6.0084e-08
5.57753e-06
-5.83383e-08
5.57953e-06
-5.48512e-08
5.5799e-06
-5.11412e-08
5.57902e-06
-4.76213e-08
5.57715e-06
-4.42774e-08
5.57451e-06
-4.11269e-08
5.57126e-06
-3.82164e-08
5.56756e-06
-3.55531e-08
5.56352e-06
-3.3131e-08
5.55923e-06
-3.09453e-08
5.55477e-06
-2.89849e-08
5.55026e-06
-2.72499e-08
-2.5699e-08
5.54573e-06
4.86521e-06
-2.87945e-08
4.86854e-06
-5.32197e-08
4.86549e-06
-5.31302e-08
4.86068e-06
-5.37712e-08
4.85482e-06
-5.42353e-08
4.84723e-06
-5.07479e-08
4.8377e-06
-4.53225e-08
4.82656e-06
-4.00073e-08
4.81426e-06
-3.53214e-08
4.80123e-06
-3.12537e-08
4.78785e-06
-2.77523e-08
4.7744e-06
-2.47705e-08
4.76108e-06
-2.22308e-08
4.74801e-06
-2.00685e-08
4.7353e-06
-1.82343e-08
4.72301e-06
-1.66995e-08
4.71126e-06
-1.55e-08
-1.515e-08
4.70071e-06
4.17388e-06
4.12066e-06
4.06753e-06
4.01376e-06
3.95952e-06
3.90878e-06
3.86345e-06
3.82344e-06
3.78812e-06
3.75687e-06
3.72912e-06
3.70434e-06
3.68211e-06
3.66204e-06
3.64381e-06
3.62711e-06
3.61161e-06
3.59646e-06
2.09371e-08
-2.10868e-08
4.50141e-08
-2.42461e-08
6.45581e-08
-1.96677e-08
7.82458e-08
-1.38029e-08
8.55989e-08
-7.4459e-09
8.66735e-08
-1.16858e-09
8.2026e-08
4.56521e-09
7.25386e-08
9.40993e-09
5.91371e-08
1.33112e-08
4.26669e-08
1.63693e-08
2.40835e-08
1.83801e-08
5.49669e-09
1.84178e-08
-1.40924e-08
1.93346e-08
-3.6311e-08
2.21053e-08
-6.28708e-08
2.63172e-08
-9.28162e-08
2.987e-08
-1.25038e-07
3.19775e-08
-1.60853e-07
3.57504e-08
-2.02126e-07
4.10538e-08
-2.49053e-07
4.68776e-08
-3.01222e-07
5.19816e-08
-3.57081e-07
5.58271e-08
-4.16423e-07
5.91857e-08
-4.78378e-07
6.19334e-08
-5.42229e-07
6.37075e-08
-6.07582e-07
6.53277e-08
-6.74483e-07
6.67525e-08
-7.42329e-07
6.78132e-08
-8.10889e-07
6.84148e-08
-8.79476e-07
6.85451e-08
-9.4784e-07
6.82122e-08
-1.01536e-06
6.74688e-08
-1.08187e-06
6.63584e-08
-1.14689e-06
6.49522e-08
-1.21034e-06
6.33025e-08
-1.27189e-06
6.14817e-08
-1.33157e-06
5.95368e-08
-1.38917e-06
5.75295e-08
-1.44479e-06
5.54921e-08
-1.49832e-06
5.34709e-08
-1.54992e-06
5.14827e-08
-1.59952e-06
4.95593e-08
-1.64733e-06
4.77053e-08
-1.69332e-06
4.59412e-08
-1.73768e-06
4.42622e-08
-1.78042e-06
4.26807e-08
-1.8217e-06
4.11867e-08
-1.86154e-06
3.97882e-08
-1.90011e-06
3.84729e-08
-1.93741e-06
3.72465e-08
-1.97359e-06
3.60951e-08
-2.00868e-06
3.50227e-08
-2.04279e-06
3.40164e-08
-2.07594e-06
3.30802e-08
-2.10825e-06
3.22019e-08
-2.13973e-06
3.13855e-08
-2.17046e-06
3.06214e-08
-2.20049e-06
2.99145e-08
-2.22986e-06
2.92563e-08
-2.25864e-06
2.86515e-08
-2.28685e-06
2.80931e-08
-2.31457e-06
2.75862e-08
-2.34182e-06
2.71261e-08
-2.36867e-06
2.6716e-08
-2.39514e-06
2.63539e-08
-2.42133e-06
2.60413e-08
-2.44721e-06
2.57788e-08
-2.47292e-06
2.5567e-08
-2.49842e-06
2.54088e-08
-2.52386e-06
2.53021e-08
-2.54918e-06
2.52521e-08
-2.57457e-06
2.52546e-08
-2.59995e-06
2.53161e-08
-2.62551e-06
2.54275e-08
-2.65118e-06
2.55973e-08
-2.67714e-06
2.58128e-08
-2.70332e-06
2.60839e-08
-2.72988e-06
2.63992e-08
-2.75673e-06
2.67655e-08
-2.78406e-06
2.71576e-08
-2.81172e-06
2.75836e-08
-2.8399e-06
2.80158e-08
-2.8684e-06
2.84533e-08
-2.89739e-06
2.88338e-08
-2.92653e-06
2.90944e-08
-2.95615e-06
2.94965e-08
-2.98628e-06
3.0137e-08
-3.01672e-06
3.04551e-08
-3.04721e-06
3.06085e-08
-3.07787e-06
3.09103e-08
-3.10876e-06
3.10915e-08
-3.13963e-06
3.10584e-08
-3.17035e-06
3.08708e-08
-3.20071e-06
3.05129e-08
-3.23049e-06
2.99147e-08
-3.25948e-06
2.91246e-08
-3.28748e-06
2.8094e-08
-3.31416e-06
2.67782e-08
-3.3393e-06
2.51725e-08
-3.36255e-06
2.32535e-08
-3.3836e-06
2.09743e-08
-3.40204e-06
1.827e-08
-3.41741e-06
1.50946e-08
-3.42914e-06
1.13325e-08
-3.43637e-06
6.79827e-09
-3.43906e-06
2.19303e-09
-3.43808e-06
-1.40906e-09
-3.43293e-06
-5.60767e-09
-3.42322e-06
-1.0057e-08
-3.40892e-06
-1.46703e-08
-3.38962e-06
-1.95594e-08
-3.36574e-06
-2.41617e-08
-3.33634e-06
-2.95599e-08
-3.30147e-06
-3.50552e-08
-3.26084e-06
-4.06975e-08
-3.21416e-06
-4.67775e-08
-3.16168e-06
-5.24575e-08
-3.10328e-06
-5.83788e-08
-3.03842e-06
-6.47056e-08
-2.96747e-06
-7.08331e-08
-2.89053e-06
-7.68492e-08
-2.80754e-06
-8.30288e-08
-2.71854e-06
-8.90231e-08
-2.62367e-06
-9.48914e-08
-2.52305e-06
-1.005e-07
-2.417e-06
-1.05873e-07
-2.30577e-06
-1.10916e-07
-2.18979e-06
-1.15635e-07
-2.06939e-06
-1.19949e-07
-1.94508e-06
-1.23854e-07
-1.81729e-06
-1.2729e-07
-1.68653e-06
-1.30248e-07
-1.55333e-06
-1.32693e-07
-1.4182e-06
-1.3462e-07
-1.28169e-06
-1.36027e-07
-1.14428e-06
-1.36934e-07
-1.00648e-06
-1.37361e-07
-8.6874e-07
-1.37353e-07
-7.31506e-07
-1.36935e-07
-5.95139e-07
-1.36172e-07
-4.60072e-07
-1.3495e-07
-3.26591e-07
-1.33455e-07
-1.94191e-07
-1.3243e-07
-6.20549e-08
-1.32237e-07
7.01606e-08
-1.3235e-07
2.006e-07
-1.30608e-07
3.27291e-07
-1.26866e-07
4.49558e-07
-1.22458e-07
5.6714e-07
-1.17766e-07
6.79905e-07
-1.12956e-07
7.87841e-07
-1.08115e-07
8.90955e-07
-1.03294e-07
9.89343e-07
-9.85541e-08
1.08311e-06
-9.3925e-08
1.17236e-06
-8.93983e-08
1.25723e-06
-8.50137e-08
1.3379e-06
-8.08066e-08
1.41453e-06
-7.67483e-08
1.48725e-06
-7.28296e-08
1.55621e-06
-6.90558e-08
1.62157e-06
-6.54417e-08
1.68348e-06
-6.19923e-08
1.74211e-06
-5.8695e-08
1.79758e-06
-5.55237e-08
1.85001e-06
-5.24837e-08
1.89953e-06
-4.95666e-08
1.94626e-06
-4.67632e-08
1.99029e-06
-4.40567e-08
2.03169e-06
-4.14343e-08
2.07054e-06
-3.88573e-08
2.1068e-06
-3.62856e-08
2.14042e-06
-3.36386e-08
2.17122e-06
-3.0813e-08
2.19883e-06
-2.76293e-08
2.22253e-06
-2.37214e-08
2.24097e-06
-1.84669e-08
2.25006e-06
-9.1216e-09
2.2408e-06
9.2283e-09
2.19133e-06
4.94334e-08
1.17454e-07
2.07387e-06
2.1509e-08
-4.27173e-08
3.54762e-08
-3.8328e-08
4.23003e-08
-2.65661e-08
4.4038e-08
-1.56055e-08
4.16299e-08
-5.09145e-09
3.54347e-08
4.97387e-09
2.54881e-08
1.44624e-08
1.15345e-08
2.33146e-08
-6.80753e-09
3.15983e-08
-2.99281e-08
3.94325e-08
-5.82116e-08
4.6591e-08
-9.21742e-08
5.23197e-08
-1.30853e-07
5.79404e-08
-1.72894e-07
6.40974e-08
-2.17437e-07
7.07951e-08
-2.65066e-07
7.74606e-08
-3.16937e-07
8.37869e-08
-3.71707e-07
9.04846e-08
-4.28478e-07
9.77673e-08
-4.8684e-07
1.0521e-07
-5.47134e-07
1.12222e-07
-6.09612e-07
1.18277e-07
-6.73782e-07
1.23306e-07
-7.3916e-07
1.27288e-07
-8.05611e-07
1.30109e-07
-8.72236e-07
1.31923e-07
-9.38426e-07
1.32889e-07
-1.00368e-06
1.33035e-07
-1.0677e-06
1.32383e-07
-1.13018e-06
1.30989e-07
-1.19097e-06
1.28939e-07
-1.24988e-06
1.26337e-07
-1.30686e-06
1.23288e-07
-1.36185e-06
1.19898e-07
-1.41488e-06
1.16266e-07
-1.46593e-06
1.12483e-07
-1.51508e-06
1.08628e-07
-1.56237e-06
1.04771e-07
-1.60789e-06
1.00965e-07
-1.65172e-06
9.72553e-08
-1.69395e-06
9.36708e-08
-1.73467e-06
9.02362e-08
-1.77397e-06
8.69632e-08
-1.81193e-06
8.3862e-08
-1.84864e-06
8.0933e-08
-1.88418e-06
7.81776e-08
-1.91862e-06
7.55892e-08
-1.95204e-06
7.31646e-08
-1.9845e-06
7.08944e-08
-2.01607e-06
6.8773e-08
-2.04681e-06
6.67894e-08
-2.07676e-06
6.49381e-08
-2.106e-06
6.32085e-08
-2.13457e-06
6.15963e-08
-2.16251e-06
6.00922e-08
-2.18988e-06
5.86933e-08
-2.21671e-06
5.73928e-08
-2.24305e-06
5.61899e-08
-2.26894e-06
5.50787e-08
-2.29442e-06
5.40595e-08
-2.31952e-06
5.31286e-08
-2.3443e-06
5.22877e-08
-2.36878e-06
5.15344e-08
-2.39301e-06
5.08709e-08
-2.41702e-06
5.02958e-08
-2.44087e-06
4.98117e-08
-2.46458e-06
4.94182e-08
-2.4882e-06
4.91179e-08
-2.51177e-06
4.89107e-08
-2.53533e-06
4.8798e-08
-2.55891e-06
4.87795e-08
-2.58258e-06
4.88544e-08
-2.60633e-06
4.90215e-08
-2.63025e-06
4.92769e-08
-2.65432e-06
4.96161e-08
-2.67862e-06
5.00322e-08
-2.70312e-06
5.05222e-08
-2.72787e-06
5.10748e-08
-2.75285e-06
5.16787e-08
-2.77809e-06
5.23144e-08
-2.80354e-06
5.29683e-08
-2.82921e-06
5.36143e-08
-2.85504e-06
5.42315e-08
-2.88107e-06
5.47897e-08
-2.90731e-06
5.5285e-08
-2.93365e-06
5.57806e-08
-2.9598e-06
5.62663e-08
-2.98588e-06
5.65384e-08
-3.01179e-06
5.66186e-08
-3.03731e-06
5.65581e-08
-3.06236e-06
5.62682e-08
-3.08685e-06
5.56548e-08
-3.11059e-06
5.46941e-08
-3.13337e-06
5.33765e-08
-3.15503e-06
5.16477e-08
-3.17534e-06
4.95101e-08
-3.19411e-06
4.69119e-08
-3.21113e-06
4.38331e-08
-3.2262e-06
4.02384e-08
-3.23909e-06
3.61279e-08
-3.24966e-06
3.14567e-08
-3.25775e-06
2.62147e-08
-3.26327e-06
2.03806e-08
-3.26619e-06
1.3968e-08
-3.26674e-06
7.0126e-09
-3.26462e-06
-2.44852e-10
-3.25867e-06
-7.68952e-09
-3.24876e-06
-1.5786e-08
-3.23464e-06
-2.44487e-08
-3.21593e-06
-3.35889e-08
-3.19248e-06
-4.32173e-08
-3.16358e-06
-5.32072e-08
-3.12953e-06
-6.37476e-08
-3.08994e-06
-7.47313e-08
-3.04459e-06
-8.61303e-08
-2.99347e-06
-9.79272e-08
-2.93613e-06
-1.09816e-07
-2.87251e-06
-1.21944e-07
-2.80283e-06
-1.34306e-07
-2.72687e-06
-1.46705e-07
-2.64466e-06
-1.59034e-07
-2.55633e-06
-1.71378e-07
-2.46189e-06
-1.83515e-07
-2.36142e-06
-1.95357e-07
-2.25514e-06
-2.06739e-07
-2.14329e-06
-2.17601e-07
-2.02622e-06
-2.27824e-07
-1.9043e-06
-2.37342e-07
-1.77795e-06
-2.46048e-07
-1.64766e-06
-2.53879e-07
-1.51393e-06
-2.60748e-07
-1.37729e-06
-2.6661e-07
-1.23829e-06
-2.71413e-07
-1.09751e-06
-2.75144e-07
-9.55477e-07
-2.77804e-07
-8.12762e-07
-2.79418e-07
-6.69877e-07
-2.80031e-07
-5.27326e-07
-2.79737e-07
-3.85564e-07
-2.78572e-07
-2.44938e-07
-2.76734e-07
-1.05368e-07
-2.74485e-07
3.30548e-08
-2.71886e-07
1.69284e-07
-2.68683e-07
3.01767e-07
-2.64778e-07
4.29287e-07
-2.59936e-07
5.52243e-07
-2.53655e-07
6.71352e-07
-2.46065e-07
7.86522e-07
-2.37735e-07
8.97627e-07
-2.28973e-07
1.00456e-06
-2.20003e-07
1.10729e-06
-2.10942e-07
1.20578e-06
-2.01904e-07
1.30009e-06
-1.92961e-07
1.39025e-06
-1.84193e-07
1.47636e-06
-1.75604e-07
1.5585e-06
-1.67252e-07
1.63677e-06
-1.59163e-07
1.71128e-06
-1.51345e-07
1.78217e-06
-1.4379e-07
1.84956e-06
-1.3652e-07
1.91359e-06
-1.29535e-07
1.97439e-06
-1.22852e-07
2.03208e-06
-1.16441e-07
2.08679e-06
-1.10282e-07
2.13863e-06
-1.04367e-07
2.18772e-06
-9.86896e-08
2.23415e-06
-9.32226e-08
2.27802e-06
-8.7947e-08
2.31938e-06
-8.28234e-08
2.3583e-06
-7.77895e-08
2.39475e-06
-7.2754e-08
2.42868e-06
-6.75815e-08
2.45991e-06
-6.20604e-08
2.48813e-06
-5.58627e-08
2.51276e-06
-4.83599e-08
2.53272e-06
-3.84504e-08
2.54707e-06
-2.34881e-08
2.55505e-06
1.22409e-09
2.5553e-06
4.91653e-08
1.40026e-07
2.53273e-06
9.21716e-09
-5.20294e-08
9.97733e-09
-3.91704e-08
6.22476e-09
-2.28664e-08
-1.20301e-09
-8.22157e-09
-1.18897e-08
5.55791e-09
-2.57068e-08
1.87564e-08
-4.2745e-08
3.14686e-08
-6.32279e-08
4.37671e-08
-8.73859e-08
5.57243e-08
-1.15332e-07
6.73494e-08
-1.47233e-07
7.84584e-08
-1.83695e-07
8.87555e-08
-2.24359e-07
9.85714e-08
-2.6852e-07
1.08236e-07
-3.15619e-07
1.17863e-07
-3.65481e-07
1.27303e-07
-4.18199e-07
1.36473e-07
-4.73131e-07
1.45396e-07
-5.2938e-07
1.53985e-07
-5.86233e-07
1.62043e-07
-6.43381e-07
1.6934e-07
-7.00818e-07
1.75694e-07
-7.58483e-07
1.8094e-07
-8.16096e-07
1.84881e-07
-8.73503e-07
1.87483e-07
-9.30407e-07
1.88805e-07
-9.86498e-07
1.88946e-07
-1.0415e-06
1.88009e-07
-1.09526e-06
1.86108e-07
-1.14766e-06
1.83366e-07
-1.19866e-06
1.79909e-07
-1.24822e-06
1.7587e-07
-1.29635e-06
1.71376e-07
-1.34302e-06
1.6655e-07
-1.38829e-06
1.61501e-07
-1.43217e-06
1.56329e-07
-1.47469e-06
1.51119e-07
-1.51589e-06
1.45944e-07
-1.55582e-06
1.40861e-07
-1.5945e-06
1.35916e-07
-1.63201e-06
1.31143e-07
-1.66836e-06
1.26564e-07
-1.70362e-06
1.22196e-07
-1.73782e-06
1.18045e-07
-1.77103e-06
1.14116e-07
-1.80329e-06
1.10406e-07
-1.83464e-06
1.06912e-07
-1.86513e-06
1.03626e-07
-1.8948e-06
1.00541e-07
-1.92371e-06
9.7648e-08
-1.95188e-06
9.49363e-08
-1.97937e-06
9.23972e-08
-2.00621e-06
9.00211e-08
-2.03245e-06
8.78002e-08
-2.05812e-06
8.57263e-08
-2.08326e-06
8.37933e-08
-2.1079e-06
8.19956e-08
-2.13208e-06
8.03291e-08
-2.15583e-06
7.879e-08
-2.1792e-06
7.73762e-08
-2.2022e-06
7.60856e-08
-2.22487e-06
7.4918e-08
-2.24726e-06
7.3873e-08
-2.26939e-06
7.29514e-08
-2.29129e-06
7.21535e-08
-2.31301e-06
7.14808e-08
-2.33457e-06
7.09342e-08
-2.35602e-06
7.05155e-08
-2.37737e-06
7.0225e-08
-2.39868e-06
7.00633e-08
-2.41997e-06
7.00293e-08
-2.44128e-06
7.01216e-08
-2.46263e-06
7.03368e-08
-2.48406e-06
7.06691e-08
-2.5056e-06
7.11115e-08
-2.52726e-06
7.16552e-08
-2.54907e-06
7.22896e-08
-2.57104e-06
7.30005e-08
-2.59318e-06
7.37697e-08
-2.61548e-06
7.45746e-08
-2.63795e-06
7.53919e-08
-2.66057e-06
7.61929e-08
-2.68333e-06
7.69483e-08
-2.70621e-06
7.76291e-08
-2.72918e-06
7.82175e-08
-2.75214e-06
7.87091e-08
-2.77499e-06
7.90871e-08
-2.7977e-06
7.92578e-08
-2.82019e-06
7.91562e-08
-2.84234e-06
7.87875e-08
-2.86406e-06
7.80684e-08
-2.88528e-06
7.69182e-08
-2.90583e-06
7.52996e-08
-2.92559e-06
7.31611e-08
-2.94437e-06
7.04723e-08
-2.96203e-06
6.71843e-08
-2.97837e-06
6.32744e-08
-2.99324e-06
5.869e-08
-3.00644e-06
5.34168e-08
-3.01778e-06
4.74216e-08
-3.0271e-06
4.06826e-08
-3.03421e-06
3.31764e-08
-3.03892e-06
2.48864e-08
-3.04101e-06
1.58275e-08
-3.04028e-06
6.00771e-09
-3.03626e-06
-4.5037e-09
-3.02847e-06
-1.57178e-08
-3.01672e-06
-2.77309e-08
-3.00078e-06
-4.0585e-08
-2.98031e-06
-5.42078e-08
-2.95507e-06
-6.86115e-08
-2.92468e-06
-8.3694e-08
-2.88909e-06
-9.94439e-08
-2.84802e-06
-1.15864e-07
-2.80128e-06
-1.32925e-07
-2.74871e-06
-1.50514e-07
-2.69008e-06
-1.68452e-07
-2.6253e-06
-1.86682e-07
-2.55438e-06
-2.05164e-07
-2.47724e-06
-2.23788e-07
-2.39389e-06
-2.42373e-07
-2.30442e-06
-2.60867e-07
-2.20889e-06
-2.79088e-07
-2.1074e-06
-2.9684e-07
-2.00017e-06
-3.13935e-07
-1.88747e-06
-3.30213e-07
-1.76964e-06
-3.45531e-07
-1.64708e-06
-3.59743e-07
-1.52025e-06
-3.72714e-07
-1.38961e-06
-3.84319e-07
-1.25571e-06
-3.94451e-07
-1.1191e-06
-4.03024e-07
-9.80338e-07
-4.0998e-07
-8.40005e-07
-4.1529e-07
-6.98668e-07
-4.18965e-07
-5.56881e-07
-4.21041e-07
-4.15174e-07
-4.21596e-07
-2.7403e-07
-4.20761e-07
-1.33785e-07
-4.18733e-07
5.21301e-09
-4.15666e-07
1.4229e-07
-4.11521e-07
2.76672e-07
-4.06228e-07
4.07766e-07
-3.99755e-07
5.35092e-07
-3.92083e-07
6.58259e-07
-3.83099e-07
7.77341e-07
-3.72732e-07
8.92475e-07
-3.61208e-07
1.00363e-06
-3.48892e-07
1.11073e-06
-3.36082e-07
1.21372e-06
-3.23e-07
1.31258e-06
-3.09815e-07
1.40732e-06
-2.96657e-07
1.49798e-06
-2.83637e-07
1.58462e-06
-2.70843e-07
1.66733e-06
-2.58321e-07
1.74619e-06
-2.46116e-07
1.82129e-06
-2.34282e-07
1.89279e-06
-2.22843e-07
1.9608e-06
-2.11809e-07
2.02546e-06
-2.01183e-07
2.08689e-06
-1.90972e-07
2.14522e-06
-1.8118e-07
2.20056e-06
-1.71792e-07
2.25306e-06
-1.62776e-07
2.30282e-06
-1.54121e-07
2.34994e-06
-1.45805e-07
2.39452e-06
-1.37803e-07
2.43666e-06
-1.30077e-07
2.47642e-06
-1.22576e-07
2.51384e-06
-1.15201e-07
2.54891e-06
-1.07828e-07
2.5816e-06
-1.00262e-07
2.61176e-06
-9.22136e-08
2.63913e-06
-8.32246e-08
2.66327e-06
-7.24992e-08
2.68348e-06
-5.8663e-08
2.69896e-06
-3.89797e-08
2.709e-06
-8.82331e-09
2.71546e-06
4.27059e-08
1.33995e-07
2.7215e-06
-4.99638e-09
-4.71127e-08
-1.55991e-08
-2.86302e-08
-2.84104e-08
-1.00951e-08
-4.34863e-08
6.82184e-09
-6.08468e-08
2.2891e-08
-8.05777e-08
3.84628e-08
-1.02823e-07
5.36905e-08
-1.27723e-07
6.86457e-08
-1.55375e-07
8.33537e-08
-1.85822e-07
9.77776e-08
-2.19187e-07
1.11801e-07
-2.55735e-07
1.25286e-07
-2.95432e-07
1.38246e-07
-3.3795e-07
1.50739e-07
-3.82878e-07
1.62769e-07
-4.29859e-07
1.7427e-07
-4.78577e-07
1.85168e-07
-5.28571e-07
1.95375e-07
-5.79375e-07
2.04766e-07
-6.30544e-07
2.13198e-07
-6.81759e-07
2.2053e-07
-7.32721e-07
2.26641e-07
-7.83238e-07
2.31432e-07
-8.33194e-07
2.3482e-07
-8.82523e-07
2.36785e-07
-9.31113e-07
2.37376e-07
-9.78882e-07
2.36688e-07
-1.02574e-06
2.34842e-07
-1.07163e-06
2.31976e-07
-1.11652e-06
2.28233e-07
-1.16039e-06
2.23757e-07
-1.20323e-06
2.18687e-07
-1.24504e-06
2.13158e-07
-1.28581e-06
2.07297e-07
-1.32555e-06
2.01216e-07
-1.36426e-06
1.9502e-07
-1.40196e-06
1.88796e-07
-1.43865e-06
1.82618e-07
-1.47436e-06
1.76545e-07
-1.50909e-06
1.70627e-07
-1.54286e-06
1.64897e-07
-1.5757e-06
1.59384e-07
-1.60763e-06
1.54104e-07
-1.63867e-06
1.49068e-07
-1.66885e-06
1.44281e-07
-1.69821e-06
1.39744e-07
-1.72677e-06
1.35453e-07
-1.75457e-06
1.31402e-07
-1.78163e-06
1.27584e-07
-1.808e-06
1.23989e-07
-1.83369e-06
1.20609e-07
-1.85875e-06
1.17433e-07
-1.88321e-06
1.14452e-07
-1.90709e-06
1.11657e-07
-1.93044e-06
1.09041e-07
-1.95327e-06
1.06596e-07
-1.97562e-06
1.04317e-07
-1.99752e-06
1.02198e-07
-2.019e-06
1.00237e-07
-2.04009e-06
9.843e-08
-2.06081e-06
9.67767e-08
-2.08121e-06
9.52763e-08
-2.1013e-06
9.3929e-08
-2.12112e-06
9.27355e-08
-2.1407e-06
9.16972e-08
-2.16007e-06
9.08155e-08
-2.17926e-06
9.00921e-08
-2.19831e-06
8.95285e-08
-2.21724e-06
8.91254e-08
-2.2361e-06
8.88829e-08
-2.2549e-06
8.88001e-08
-2.27368e-06
8.88739e-08
-2.29247e-06
8.91e-08
-2.31131e-06
8.9472e-08
-2.3302e-06
8.99801e-08
-2.34919e-06
9.06125e-08
-2.36829e-06
9.13554e-08
-2.38751e-06
9.21899e-08
-2.40687e-06
9.30934e-08
-2.42636e-06
9.40389e-08
-2.446e-06
9.49966e-08
-2.46577e-06
9.59322e-08
-2.48566e-06
9.68098e-08
-2.50566e-06
9.75938e-08
-2.52573e-06
9.82532e-08
-2.5458e-06
9.87606e-08
-2.56582e-06
9.90819e-08
-2.58571e-06
9.91461e-08
-2.60541e-06
9.88951e-08
-2.62483e-06
9.82568e-08
-2.64391e-06
9.71865e-08
-2.66255e-06
9.55859e-08
-2.68063e-06
9.33988e-08
-2.69802e-06
9.05645e-08
-2.71458e-06
8.70346e-08
-2.73015e-06
8.27514e-08
-2.74457e-06
7.76745e-08
-2.75765e-06
7.17502e-08
-2.76923e-06
6.49457e-08
-2.7791e-06
5.72179e-08
-2.78706e-06
4.85296e-08
-2.7929e-06
3.88488e-08
-2.79635e-06
2.81437e-08
-2.79717e-06
1.64138e-08
-2.79504e-06
3.64883e-09
-2.78963e-06
-1.01296e-08
-2.78059e-06
-2.4944e-08
-2.76769e-06
-4.08063e-08
-2.75066e-06
-5.77661e-08
-2.72923e-06
-7.57746e-08
-2.70313e-06
-9.48211e-08
-2.67211e-06
-1.14802e-07
-2.63594e-06
-1.35689e-07
-2.59441e-06
-1.57449e-07
-2.54733e-06
-1.80043e-07
-2.49454e-06
-2.03318e-07
-2.43585e-06
-2.27136e-07
-2.37113e-06
-2.51362e-07
-2.30032e-06
-2.75924e-07
-2.22341e-06
-3.00656e-07
-2.1404e-06
-3.25383e-07
-2.05137e-06
-3.49929e-07