/*--------------------------------*- C++ -*----------------------------------*\
  =========                 |
  \\      /  F ield         | OpenFOAM: The Open Source CFD Toolbox
   \\    /   O peration     | Website:  https://openfoam.org
    \\  /    A nd           | Version:  13
     \\/     M anipulation  |
\*---------------------------------------------------------------------------*/
FoamFile
{
    format      ascii;
    class       volVectorField;
    location    "100";
    object      U;
}
// * * * * * * * * * * * * * * * * * * * * * * * * * * * * * * * * * * * * * //

dimensions      [0 1 -1 0 0 0 0];

internalField   nonuniform List<vector> 
12225
(
(9.84288 -0.89605 0)
(9.65335 -0.758582 0)
(9.44935 -0.447032 0)
(9.22332 -0.23571 0)
(9.00814 -0.115433 0)
(8.81726 -0.0512167 0)
(8.65038 -0.018063 0)
(8.5077 -0.000866383 0)
(8.38503 0.00800092 0)
(8.28113 0.0124219 0)
(8.19112 0.0144542 0)
(8.1132 0.015668 0)
(8.04389 0.0162639 0)
(7.98165 0.016773 0)
(7.92303 0.0172899 0)
(7.86941 0.0189861 0)
(7.79694 0.0196295 0)
(7.78171 0.0386142 0)
(10.0671 0.239323 0)
(10.13 0.343081 0)
(10.1205 0.274534 0)
(10.0816 0.195468 0)
(10.0378 0.140372 0)
(9.99087 0.104604 0)
(9.93869 0.0813929 0)
(9.88049 0.0658477 0)
(9.81963 0.0550842 0)
(9.75729 0.0472886 0)
(9.69585 0.0414969 0)
(9.63563 0.0370749 0)
(9.57769 0.0337225 0)
(9.52217 0.0314213 0)
(9.46839 0.0299496 0)
(9.41941 0.0314509 0)
(9.36565 0.0320212 0)
(9.3412 0.0543875 0)
(10.0042 0.0529306 0)
(10.0322 0.0478243 0)
(10.0586 0.0266015 0)
(10.0723 0.0277723 0)
(10.0779 0.0372861 0)
(10.0777 0.0444261 0)
(10.0716 0.0480869 0)
(10.0598 0.0496373 0)
(10.0441 0.0499886 0)
(10.0251 0.0496565 0)
(10.004 0.0489766 0)
(9.98107 0.0482232 0)
(9.957 0.0475715 0)
(9.93209 0.0473322 0)
(9.90628 0.0475159 0)
(9.88092 0.0498102 0)
(9.85416 0.052816 0)
(9.83304 0.065849 0)
(9.99798 0.011724 0)
(10.0119 0.0286449 0)
(10.0365 0.0393807 0)
(10.0538 0.0498768 0)
(10.0653 0.0567569 0)
(10.0738 0.0591301 0)
(10.0794 0.0590925 0)
(10.0818 0.0582677 0)
(10.0817 0.0572346 0)
(10.0796 0.0561449 0)
(10.0759 0.0550877 0)
(10.0708 0.0542158 0)
(10.0645 0.053598 0)
(10.0573 0.0534942 0)
(10.049 0.0539833 0)
(10.0406 0.0561826 0)
(10.0321 0.0594118 0)
(10.0263 0.0676704 0)
(9.99933 0.00734299 0)
(10.0092 0.0319652 0)
(10.0279 0.0440451 0)
(10.0423 0.0499144 0)
(10.0531 0.053626 0)
(10.063 0.0553443 0)
(10.0715 0.0557482 0)
(10.0779 0.0556094 0)
(10.0826 0.0552532 0)
(10.086 0.0547925 0)
(10.0883 0.0543184 0)
(10.0896 0.0539753 0)
(10.0899 0.0538608 0)
(10.0897 0.0542002 0)
(10.0888 0.0551191 0)
(10.0879 0.0572902 0)
(10.0875 0.0604298 0)
(10.0891 0.0656691 0)
(10.0003 0.00914272 0)
(10.0083 0.0311712 0)
(10.0227 0.0409483 0)
(10.035 0.0454553 0)
(10.0451 0.0492135 0)
(10.0547 0.0516698 0)
(10.0635 0.0527785 0)
(10.0709 0.0531646 0)
(10.0771 0.053228 0)
(10.0823 0.0531299 0)
(10.0866 0.0529818 0)
(10.0903 0.0529229 0)
(10.0933 0.0530648 0)
(10.0958 0.0535879 0)
(10.0981 0.0546185 0)
(10.1004 0.0565037 0)
(10.1034 0.0590812 0)
(10.1079 0.0623718 0)
(10.0004 0.00890869 0)
(10.0071 0.0271152 0)
(10.019 0.0365029 0)
(10.0301 0.0415402 0)
(10.0394 0.0456557 0)
(10.0484 0.0484343 0)
(10.0568 0.0498386 0)
(10.0643 0.0504796 0)
(10.0708 0.0507766 0)
(10.0766 0.0508975 0)
(10.0818 0.0509535 0)
(10.0864 0.0510701 0)
(10.0905 0.0513574 0)
(10.0944 0.0519502 0)
(10.098 0.0529441 0)
(10.1019 0.0544908 0)
(10.1064 0.0564411 0)
(10.112 0.058507 0)
(10.0004 0.00791198 0)
(10.0059 0.0234436 0)
(10.016 0.0328601 0)
(10.0261 0.0382806 0)
(10.0349 0.0423659 0)
(10.0432 0.0451725 0)
(10.0512 0.0467371 0)
(10.0585 0.0475645 0)
(10.065 0.0480357 0)
(10.071 0.0483168 0)
(10.0764 0.048517 0)
(10.0814 0.0487486 0)
(10.0861 0.0491113 0)
(10.0906 0.0497011 0)
(10.095 0.0505759 0)
(10.0996 0.0517762 0)
(10.1047 0.0531487 0)
(10.1106 0.0543493 0)
(10.0004 0.00697611 0)
(10.005 0.0205013 0)
(10.0136 0.0295919 0)
(10.0227 0.035067 0)
(10.0309 0.0390185 0)
(10.0387 0.0418155 0)
(10.0463 0.0435157 0)
(10.0533 0.0444997 0)
(10.0598 0.0451062 0)
(10.0657 0.0455052 0)
(10.0712 0.0458046 0)
(10.0764 0.0461042 0)
(10.0813 0.0464884 0)
(10.0861 0.0470223 0)
(10.0908 0.0477316 0)
(10.0958 0.0485959 0)
(10.1011 0.0494651 0)
(10.107 0.0500413 0)
(10.0004 0.00615745 0)
(10.0043 0.0179448 0)
(10.0115 0.0264326 0)
(10.0197 0.0318214 0)
(10.0274 0.0356573 0)
(10.0348 0.0384275 0)
(10.0419 0.0402179 0)
(10.0487 0.0413168 0)
(10.0549 0.0420219 0)
(10.0608 0.0425038 0)
(10.0663 0.0428667 0)
(10.0715 0.0431976 0)
(10.0766 0.0435644 0)
(10.0815 0.044009 0)
(10.0864 0.0445339 0)
(10.0915 0.0450921 0)
(10.0968 0.0455515 0)
(10.1025 0.0456879 0)
(10.0003 0.00540691 0)
(10.0036 0.0156462 0)
(10.0098 0.0234135 0)
(10.0171 0.0286176 0)
(10.0243 0.032321 0)
(10.0312 0.0350223 0)
(10.038 0.0368458 0)
(10.0444 0.0380165 0)
(10.0505 0.0387882 0)
(10.0563 0.0393234 0)
(10.0617 0.0397204 0)
(10.067 0.0400534 0)
(10.072 0.0403761 0)
(10.077 0.0407139 0)
(10.082 0.0410565 0)
(10.087 0.0413505 0)
(10.0922 0.0414901 0)
(10.0977 0.0413173 0)
(10.0003 0.00474889 0)
(10.0031 0.0137168 0)
(10.0085 0.0207852 0)
(10.0151 0.0257338 0)
(10.0217 0.029279 0)
(10.0283 0.031881 0)
(10.0347 0.0336908 0)
(10.0409 0.0348918 0)
(10.0468 0.0356974 0)
(10.0525 0.0362574 0)
(10.0579 0.0366629 0)
(10.063 0.0369772 0)
(10.0681 0.0372436 0)
(10.0731 0.037478 0)
(10.078 0.0376652 0)
(10.083 0.0377565 0)
(10.088 0.03767 0)
(10.0932 0.0373004 0)
(10.0003 0.00414076 0)
(10.0027 0.0119551 0)
(10.0074 0.0182991 0)
(10.0133 0.0229142 0)
(10.0195 0.0262652 0)
(10.0257 0.0287404 0)
(10.0318 0.0305012 0)
(10.0377 0.0317008 0)
(10.0435 0.0325159 0)
(10.049 0.0330802 0)
(10.0543 0.0334763 0)
(10.0594 0.0337587 0)
(10.0644 0.0339616 0)
(10.0693 0.0340958 0)
(10.0742 0.0341465 0)
(10.0791 0.0340737 0)
(10.0839 0.0338174 0)
(10.0888 0.0333098 0)
(10.0002 0.00351214 0)
(10.0024 0.0101235 0)
(10.0064 0.0156317 0)
(10.0117 0.0197876 0)
(10.0173 0.0228599 0)
(10.0231 0.0251469 0)
(10.0288 0.026805 0)
(10.0345 0.0279613 0)
(10.04 0.0287545 0)
(10.0454 0.0292973 0)
(10.0506 0.0296631 0)
(10.0556 0.0298965 0)
(10.0605 0.0300237 0)
(10.0654 0.0300528 0)
(10.0701 0.0299728 0)
(10.0748 0.0297555 0)
(10.0794 0.0293626 0)
(10.084 0.0287544 0)
(10.0002 0.00285849 0)
(10.002 0.00821871 0)
(10.0055 0.0127892 0)
(10.0101 0.0163535 0)
(10.0152 0.0190425 0)
(10.0206 0.0210619 0)
(10.026 0.0225475 0)
(10.0313 0.0236023 0)
(10.0366 0.0243286 0)
(10.0418 0.0248146 0)
(10.0468 0.0251214 0)
(10.0518 0.0252854 0)
(10.0565 0.0253267 0)
(10.0612 0.0252513 0)
(10.0658 0.0250538 0)
(10.0703 0.0247196 0)
(10.0747 0.024228 0)
(10.079 0.0235607 0)
(10.0002 0.0021783 0)
(10.0017 0.00624129 0)
(10.0047 0.00977758 0)
(10.0087 0.0126132 0)
(10.0134 0.0147956 0)
(10.0183 0.0164498 0)
(10.0233 0.0176771 0)
(10.0284 0.0185559 0)
(10.0334 0.0191567 0)
(10.0384 0.0195417 0)
(10.0432 0.0197566 0)
(10.048 0.0198307 0)
(10.0526 0.019779 0)
(10.0571 0.0196071 0)
(10.0615 0.0193144 0)
(10.0658 0.0188964 0)
(10.0699 0.0183473 0)
(10.0739 0.0176599 0)
(10.0002 0.00146757 0)
(10.0015 0.00417545 0)
(10.0041 0.00657739 0)
(10.0076 0.00854498 0)
(10.0118 0.010084 0)
(10.0163 0.011258 0)
(10.021 0.0121285 0)
(10.0258 0.0127454 0)
(10.0306 0.013152 0)
(10.0353 0.0133852 0)
(10.04 0.0134745 0)
(10.0445 0.0134398 0)
(10.049 0.0132921 0)
(10.0533 0.013036 0)
(10.0575 0.0126742 0)
(10.0615 0.0122077 0)
(10.0654 0.0116396 0)
(10.0691 0.0109674 0)
(10.0001 0.00070891 0)
(10.0013 0.00196788 0)
(10.0036 0.00311395 0)
(10.0069 0.00406548 0)
(10.0107 0.00481265 0)
(10.015 0.00537651 0)
(10.0194 0.00577987 0)
(10.0239 0.00604201 0)
(10.0285 0.00618 0)
(10.033 0.00620828 0)
(10.0374 0.00613875 0)
(10.0418 0.00597956 0)
(10.046 0.00573574 0)
(10.0501 0.00540973 0)
(10.0541 0.0050041 0)
(10.0579 0.00452172 0)
(10.0616 0.00396763 0)
(10.065 0.003341 0)
(10.0001 -0.000142117 0)
(10.0013 -0.000504316 0)
(10.0035 -0.000788222 0)
(10.0066 -0.00102208 0)
(10.0103 -0.00121557 0)
(10.0144 -0.00138523 0)
(10.0187 -0.00154945 0)
(10.0231 -0.00172278 0)
(10.0275 -0.00191334 0)
(10.0319 -0.00212974 0)
(10.0362 -0.00237896 0)
(10.0404 -0.00266751 0)
(10.0444 -0.00299858 0)
(10.0484 -0.00337503 0)
(10.0521 -0.00379751 0)
(10.0557 -0.00426638 0)
(10.0592 -0.00477833 0)
(10.0625 -0.00533682 0)
(10.0001 -0.000959289 0)
(10.0013 -0.0028768 0)
(10.0037 -0.0045424 0)
(10.007 -0.00590859 0)
(10.0109 -0.00698218 0)
(10.0152 -0.00782492 0)
(10.0195 -0.00850078 0)
(10.024 -0.00905236 0)
(10.0284 -0.00951569 0)
(10.0328 -0.00992305 0)
(10.0371 -0.0103028 0)
(10.0412 -0.0106733 0)
(10.0452 -0.0110476 0)
(10.049 -0.0114329 0)
(10.0527 -0.0118365 0)
(10.0562 -0.0122616 0)
(10.0595 -0.0127102 0)
(10.0627 -0.0131866 0)
(10.0002 -0.00166442 0)
(10.0015 -0.00494797 0)
(10.0041 -0.00782142 0)
(10.0078 -0.0101095 0)
(10.0121 -0.0118434 0)
(10.0166 -0.0131758 0)
(10.0212 -0.0142143 0)
(10.0258 -0.0150166 0)
(10.0304 -0.0156411 0)
(10.0348 -0.0161466 0)
(10.0391 -0.0165807 0)
(10.0433 -0.0169732 0)
(10.0473 -0.017345 0)
(10.051 -0.0177082 0)
(10.0547 -0.0180737 0)
(10.0581 -0.0184473 0)
(10.0614 -0.0188328 0)
(10.0645 -0.0192359 0)
(10.0002 -0.0023336 0)
(10.0017 -0.00699431 0)
(10.0047 -0.0110954 0)
(10.009 -0.0142112 0)
(10.0138 -0.0164538 0)
(10.0187 -0.0181391 0)
(10.0236 -0.0194268 0)
(10.0284 -0.0203886 0)
(10.0332 -0.0211048 0)
(10.0378 -0.021657 0)
(10.0421 -0.0221019 0)
(10.0463 -0.02248 0)
(10.0503 -0.0228177 0)
(10.0541 -0.0231359 0)
(10.0577 -0.0234458 0)
(10.0611 -0.0237578 0)
(10.0644 -0.024074 0)
(10.0674 -0.0244021 0)
(10.0002 -0.00295736 0)
(10.0018 -0.00906689 0)
(10.0055 -0.0143966 0)
(10.0106 -0.0182379 0)
(10.016 -0.0209307 0)
(10.0213 -0.02291 0)
(10.0265 -0.0243317 0)
(10.0317 -0.0253195 0)
(10.0366 -0.0260269 0)
(10.0413 -0.0265626 0)
(10.0458 -0.0269822 0)
(10.05 -0.0273225 0)
(10.0541 -0.0276134 0)
(10.0579 -0.0278775 0)
(10.0615 -0.0281298 0)
(10.0649 -0.0283799 0)
(10.0681 -0.028632 0)
(10.0711 -0.0288917 0)
(10.0001 -0.00350044 0)
(10.0018 -0.0115218 0)
(10.0063 -0.017852 0)
(10.0123 -0.0219211 0)
(10.0184 -0.0249506 0)
(10.0242 -0.027323 0)
(10.0299 -0.028926 0)
(10.0353 -0.0299052 0)
(10.0405 -0.0305347 0)
(10.0453 -0.0309801 0)
(10.0499 -0.0313089 0)
(10.0542 -0.0315598 0)
(10.0583 -0.031766 0)
(10.0621 -0.0319502 0)
(10.0657 -0.0321275 0)
(10.0691 -0.032305 0)
(10.0723 -0.0324872 0)
(10.0752 -0.0326749 0)
(9.9999 -0.00335366 0)
(10.0016 -0.0149326 0)
(10.0073 -0.0226447 0)
(10.0143 -0.0261319 0)
(10.0208 -0.0287378 0)
(10.0271 -0.0311302 0)
(10.0334 -0.0328624 0)
(10.0394 -0.0339451 0)
(10.0449 -0.0346309 0)
(10.05 -0.0350787 0)
(10.0547 -0.0353634 0)
(10.0591 -0.0355414 0)
(10.0631 -0.0356594 0)
(10.0669 -0.0357484 0)
(10.0703 -0.0358264 0)
(10.0735 -0.0359043 0)
(10.0765 -0.0359863 0)
(10.0792 -0.0360755 0)
(9.99859 -0.000434519 0)
(9.99915 -0.0159128 0)
(10.0078 -0.0273803 0)
(10.0169 -0.0321695 0)
(10.0242 -0.0344144 0)
(10.0311 -0.0357554 0)
(10.0382 -0.0365413 0)
(10.0448 -0.0370561 0)
(10.0506 -0.0374506 0)
(10.0557 -0.0377362 0)
(10.0603 -0.0379131 0)
(10.0644 -0.0380093 0)
(10.068 -0.0380573 0)
(10.0712 -0.0380796 0)
(10.074 -0.0380915 0)
(10.0765 -0.0381036 0)
(10.0786 -0.0381186 0)
(10.0805 -0.0381387 0)
(9.99496 0.00116321 0)
(9.99336 -0.00948371 0)
(10.0071 -0.0224503 0)
(10.0215 -0.0343672 0)
(10.0318 -0.0422313 0)
(10.0403 -0.0455016 0)
(10.0476 -0.0460604 0)
(10.0537 -0.0456372 0)
(10.0585 -0.0449571 0)
(10.0623 -0.0441982 0)
(10.0653 -0.0434288 0)
(10.0674 -0.0426989 0)
(10.0688 -0.0420361 0)
(10.0697 -0.0414434 0)
(10.07 -0.0409256 0)
(10.0699 -0.0404795 0)
(10.0694 -0.0400995 0)
(10.0686 -0.0397581 0)
(9.99478 -0.0280665 0)
(10.0001 -0.0171861 0)
(10.0166 0.00348117 0)
(10.0327 0.00322561 0)
(10.0454 -0.0077189 0)
(10.0548 -0.0179647 0)
(10.0604 -0.0250742 0)
(10.0625 -0.0298711 0)
(10.0619 -0.0330706 0)
(10.0593 -0.0350804 0)
(10.0551 -0.0362422 0)
(10.0497 -0.0368494 0)
(10.0434 -0.0371041 0)
(10.0364 -0.0371383 0)
(10.0289 -0.0370493 0)
(10.0209 -0.0369042 0)
(10.0128 -0.0367723 0)
(10.0046 -0.0366299 0)
(10.0389 -0.19047 0)
(10.0865 -0.300323 0)
(10.0902 -0.258369 0)
(10.0758 -0.194617 0)
(10.0621 -0.146073 0)
(10.049 -0.112167 0)
(10.0319 -0.0884835 0)
(10.0104 -0.0720814 0)
(9.98583 -0.0606689 0)
(9.95935 -0.0524594 0)
(9.93188 -0.0463462 0)
(9.90398 -0.0416618 0)
(9.87617 -0.0379875 0)
(9.84877 -0.0350387 0)
(9.82203 -0.0326295 0)
(9.79608 -0.0306847 0)
(9.77116 -0.0291573 0)
(9.74728 -0.0283407 0)
(9.92254 0.695098 0)
(9.85494 0.622048 0)
(9.75666 0.394316 0)
(9.62352 0.22899 0)
(9.48572 0.127701 0)
(9.35858 0.068859 0)
(9.2448 0.0351478 0)
(9.14354 0.0157227 0)
(9.05393 0.00439844 0)
(8.97493 -0.00228145 0)
(8.90496 -0.00621725 0)
(8.84271 -0.00856636 0)
(8.78695 -0.00994642 0)
(8.73679 -0.0107665 0)
(8.69132 -0.0112887 0)
(8.64993 -0.0115672 0)
(8.6117 -0.0117774 0)
(8.5763 -0.0124191 0)
(0.0118941 -0.018225 -5.96031e-19)
(0.0324319 -0.0261157 3.03183e-19)
(0.0487211 -0.0242217 0)
(0.0640065 -0.0181251 0)
(0.0739021 -0.0100554 0)
(0.0775643 -0.00169202 -1.22779e-19)
(0.0756168 0.00565136 0)
(0.0688656 0.0110031 0)
(0.0586751 0.0139516 0)
(0.0480648 0.0144308 0)
(0.0343321 0.0132883 2.43715e-19)
(0.0114527 0.0108025 0)
(-0.0039016 0.00793797 0)
(-0.0227602 0.00981512 0)
(-0.043137 0.015687 0)
(-0.0689007 0.0174298 3.20377e-19)
(-0.0963866 0.0133678 0)
(-0.124309 0.0139614 0)
(-0.16108 0.0194406 0)
(-0.2025 0.0283715 0)
(-0.247018 0.0374504 0)
(-0.294677 0.0446636 0)
(-0.345255 0.0515016 0)
(-0.399666 0.0564913 1.20667e-19)
(-0.4571 0.0582239 -1.11031e-19)
(-0.515235 0.0597086 1.02632e-19)
(-0.574927 0.0611067 9.5281e-20)
(-0.6358 0.0621919 0)
(-0.697499 0.0628442 0)
(-0.759593 0.0630384 -7.82541e-20)
(-0.821663 0.0627735 -7.38975e-20)
(-0.883307 0.0620919 0)
(-0.944176 0.061028 0)
(-1.00397 0.0596474 -6.36837e-20)
(-1.06245 0.0580005 0)
(-1.11943 0.0561592 0)
(-1.17476 0.0541725 5.65295e-20)
(-1.22837 0.0521042 0)
(-1.2802 0.0499903 5.29063e-20)
(-1.33025 0.0478798 1.027e-19)
(-1.37855 0.045793 0)
(-1.42513 0.0437643 0)
(-1.47006 0.0418014 0)
(-1.51341 0.0399259 0)
(-1.55526 0.0381341 0)
(-1.59569 0.0364388 8.87203e-20)
(-1.63478 0.0348304 8.69251e-20)
(-1.67261 0.0333166 8.52341e-20)
(-1.70927 0.0318852 0)
(-1.74483 0.0305409 -8.21058e-20)
(-1.77936 0.0292688 0)
(-1.81294 0.0280729 7.92472e-20)
(-1.84563 0.0269404 7.78968e-20)
(-1.87749 0.0258751 0)
(-1.90858 0.0248638 0)
(-1.93895 0.0239121 0)
(-1.96867 0.02301 7.28755e-20)
(-1.99776 0.0221635 0)
(-2.02629 0.0213618 0)
(-2.0543 0.0206122 0)
(-2.08183 0.0199075 0)
(-2.10892 0.0192558 0)
(-2.13562 0.0186507 0)
(-2.16197 0.0180994 0)
(-2.18802 0.0175966 0)
(-2.2138 0.0171485 -6.26996e-20)
(-2.23937 0.0167516 0)
(-2.26477 0.0164114 0)
(-2.29004 0.0161257 5.94391e-20)
(-2.31524 0.0158995 5.83597e-20)
(-2.34041 0.0157321 0)
(-2.36562 0.0156256 -5.62125e-20)
(-2.39089 0.0155796 5.51454e-20)
(-2.4163 0.015594 0)
(-2.44191 0.0156698 -5.30248e-20)
(-2.46776 0.0158071 0)
(-2.49389 0.0160122 0)
(-2.52036 0.0162852 4.98901e-20)
(-2.54721 0.0166274 0)
(-2.57447 0.0170316 -4.78438e-20)
(-2.60218 0.0174981 0)
(-2.63035 0.0180072 4.58475e-20)
(-2.65898 0.0185365 4.48736e-20)
(-2.68807 0.0190346 4.39172e-20)
(-2.71753 0.0193883 8.59544e-20)
(-2.74734 0.0203506 -8.4118e-20)
(-2.7776 0.021852 0)
(-2.80848 0.0223624 0)
(-2.83957 0.0225127 0)
(-2.87073 0.0231849 -7.75841e-20)
(-2.90222 0.0237328 -7.60916e-20)
(-2.93394 0.023918 7.46611e-20)
(-2.96563 0.0239959 0)
(-2.99715 0.0239275 -7.1974e-20)
(-3.02833 0.0236012 -7.07235e-20)
(-3.05893 0.0231868 -6.9539e-20)
(-3.08878 0.022603 0)
(-3.11764 0.0217942 0)
(-3.14524 0.0208434 0)
(-3.17129 0.0197709 -6.55453e-20)
(-3.19551 0.0185598 0)
(-3.21754 0.0171954 0)
(-3.23697 0.0156279 6.34181e-20)
(-3.2533 0.0136814 0)
(-3.2658 0.0108523 0)
(-3.27381 0.00858963 6.1863e-20)
(-3.27779 0.00851383 0)
(-3.27849 0.00690546 0)
(-3.27489 0.00479092 -6.03411e-20)
(-3.26704 0.00280323 -5.98048e-20)
(-3.25447 0.000679698 0)
(-3.23745 -0.000411581 5.85254e-20)
(-3.21546 -0.00321889 0)
(-3.18821 -0.00589179 -5.68732e-20)
(-3.15558 -0.00852802 0)
(-3.11713 -0.0118008 -5.45371e-20)
(-3.07288 -0.0141695 -5.29968e-20)
(-3.02299 -0.0169752 0)
(-2.96691 -0.0208398 0)
(-2.90475 -0.0243748 0)
(-2.83656 -0.027876 0)
(-2.76236 -0.0318382 0)
(-2.68217 -0.0357834 0)
(-2.59603 -0.0398416 0)
(-2.50401 -0.0439338 -2.57824e-20)
(-2.40634 -0.0480509 1.95282e-20)
(-2.30325 -0.0521291 0)
(-2.19507 -0.0561488 0)
(-2.08216 -0.0600489 0)
(-1.9649 -0.0638081 0)
(-1.84373 -0.0673784 -5.31215e-20)
(-1.7191 -0.0707408 0)
(-1.59151 -0.0738682 1.07468e-19)
(-1.46145 -0.0767392 -1.39387e-19)
(-1.32944 -0.0793542 0)
(-1.19597 -0.0817402 0)
(-1.06153 -0.0839042 0)
(-0.926574 -0.0858767 3.08581e-19)
(-0.791549 -0.0876706 3.64464e-19)
(-0.656858 -0.0893155 0)
(-0.522915 -0.0907842 4.9996e-19)
(-0.390102 -0.0921266 5.83146e-19)
(-0.25866 -0.0936148 -6.80336e-19)
(-0.128412 -0.0945762 0)
(0.0037867 -0.0928063 0)
(0.136394 -0.0885557 -7.44759e-19)
(0.265434 -0.083753 0)
(0.3908 -0.0789888 0)
(0.511959 -0.0743904 0)
(0.628711 -0.0700016 0)
(0.740952 -0.0658183 6.31096e-19)
(0.848668 -0.0618369 6.16615e-19)
(0.951907 -0.0580942 0)
(1.05074 -0.0545687 5.92047e-19)
(1.14524 -0.0512055 0)
(1.23555 -0.0480391 0)
(1.32182 -0.0450864 5.62781e-19)
(1.40418 -0.0423117 0)
(1.48276 -0.0396973 5.46832e-19)
(1.5577 -0.0372336 0)
(1.62914 -0.0349153 0)
(1.69723 -0.0327397 5.2683e-19)
(1.76212 -0.0306993 0)
(1.82394 -0.0287743 5.15546e-19)
(1.88281 -0.0269617 0)
(1.93884 -0.0252559 0)
(1.99215 -0.0236467 0)
(2.04283 -0.0221246 -4.96842e-19)
(2.09096 -0.0206763 0)
(2.13661 -0.0192904 4.89184e-19)
(2.17978 -0.017956 0)
(2.22044 -0.0166336 0)
(2.25844 -0.0152903 0)
(2.2935 -0.0138742 0)
(2.32513 -0.0122687 0)
(2.35185 -0.0102961 0)
(2.3731 -0.00706949 0)
(2.37765 -0.00113453 -9.5956e-19)
(2.36855 0.0134024 0)
(2.25369 0.0334043 0)
(0.0122503 -0.0659895 1.34617e-18)
(0.028519 -0.0653399 -5.77459e-19)
(0.0350431 -0.0485888 0)
(0.0389272 -0.0320488 1.68398e-19)
(0.0388158 -0.0159002 0)
(0.0349272 -0.000532553 6.47148e-20)
(0.0276987 0.0135954 -1.22493e-19)
(0.0171343 0.0262058 -1.21762e-19)
(0.00314121 0.0374058 0)
(-0.0141566 0.0477263 -1.4399e-19)
(-0.0375782 0.0571347 -8.58483e-20)
(-0.0660453 0.0627039 0)
(-0.0987 0.0678546 0)
(-0.134819 0.0741714 0)
(-0.173362 0.0816664 0)
(-0.214525 0.0895057 -7.39445e-20)
(-0.259054 0.0967714 0)
(-0.30682 0.104788 1.25272e-19)
(-0.357371 0.114252 0)
(-0.409238 0.124371 0)
(-0.462203 0.13396 -9.92518e-20)
(-0.517028 0.141924 0)
(-0.573802 0.148236 8.69469e-20)
(-0.632403 0.153169 -4.14287e-20)
(-0.692266 0.156522 3.95461e-20)
(-0.752413 0.158574 -3.78144e-20)
(-0.812458 0.159605 -3.62105e-20)
(-0.871947 0.159604 0)
(-0.93052 0.158554 0)
(-0.9879 0.156521 3.21016e-20)
(-1.04388 0.153608 -3.0704e-20)
(-1.0983 0.14996 0)
(-1.15107 0.145718 0)
(-1.20213 0.141034 2.80275e-20)
(-1.25146 0.136041 0)
(-1.29907 0.130871 0)
(-1.34499 0.125629 -2.57684e-20)
(-1.38926 0.120414 0)
(-1.43196 0.115293 2.43435e-20)
(-1.47315 0.11033 -4.79923e-20)
(-1.5129 0.105557 0)
(-1.5513 0.101007 0)
(-1.58843 0.0966909 -8.99423e-20)
(-1.62437 0.0926216 -8.82909e-20)
(-1.65918 0.0887926 -8.67333e-20)
(-1.69295 0.085206 4.24678e-20)
(-1.72573 0.0818467 -4.20839e-20)
(-1.75761 0.078711 -1.23927e-19)
(-1.78864 0.0757806 8.12352e-20)
(-1.81887 0.0730498 4.014e-20)
(-1.84837 0.0704986 0)
(-1.87718 0.0681208 -3.89559e-20)
(-1.90536 0.0658984 3.81438e-20)
(-1.93295 0.0638266 0)
(-1.96 0.061889 0)
(-1.98655 0.0600831 0)
(-2.01264 0.0583957 -3.62372e-20)
(-2.0383 0.0568273 0)
(-2.06358 0.0553659 7.0236e-20)
(-2.08851 0.0540125 0)
(-2.11313 0.0527578 6.82339e-20)
(-2.13747 0.0516046 0)
(-2.16157 0.0505456 -6.62517e-20)
(-2.18547 0.0495836 0)
(-2.2092 0.0487129 6.42777e-20)
(-2.23281 0.0479362 -3.15825e-20)
(-2.25631 0.0472494 0)
(-2.27977 0.0466553 -6.13201e-20)
(-2.30321 0.0461506 -3.02262e-20)
(-2.32666 0.0457363 -2.97348e-20)
(-2.35018 0.04541 0)
(-2.37379 0.0451704 -2.86405e-20)
(-2.39754 0.0450146 -2.82711e-20)
(-2.42145 0.0449368 0)
(-2.44556 0.0449321 2.7307e-20)
(-2.4699 0.0449918 -5.35262e-20)
(-2.4945 0.0451131 0)
(-2.51937 0.0452856 -2.58855e-20)
(-2.54451 0.0455008 0)
(-2.56994 0.0457405 7.47125e-20)
(-2.59565 0.0459982 0)
(-2.62162 0.0462551 -7.19775e-20)
(-2.64784 0.0465 -2.36118e-20)
(-2.67428 0.0467025 2.29673e-20)
(-2.70098 0.0468553 4.50574e-20)
(-2.72787 0.0469455 -4.42124e-20)
(-2.75485 0.0470133 0)
(-2.78178 0.0470505 0)
(-2.80859 0.0470102 0)
(-2.83524 0.0468468 1.25012e-19)
(-2.86157 0.0465247 4.12461e-20)
(-2.88748 0.0460041 -4.06318e-20)
(-2.91285 0.0452368 0)
(-2.93748 0.0442184 -3.87409e-20)
(-2.9612 0.0429206 3.89463e-20)
(-2.98383 0.0413229 3.84417e-20)
(-3.00516 0.0394045 0)
(-3.02501 0.0371575 0)
(-3.04316 0.0345529 0)
(-3.05942 0.0315884 3.67713e-20)
(-3.0736 0.028239 0)
(-3.08554 0.0244916 -7.17365e-20)
(-3.09513 0.0203438 -1.07156e-19)
(-3.10227 0.0158238 7.07972e-20)
(-3.10706 0.0110297 0)
(-3.1096 0.00606607 3.46505e-20)
(-3.10925 0.00101607 0)
(-3.10501 -0.00416453 6.91082e-20)
(-3.09691 -0.0095208 -3.40306e-20)
(-3.08454 -0.0151072 -3.37989e-20)
(-3.06781 -0.0209438 0)
(-3.04614 -0.0269983 -1.00837e-19)
(-3.0193 -0.0331414 6.64163e-20)
(-2.98735 -0.0395028 3.29409e-20)
(-2.9499 -0.0460743 0)
(-2.90684 -0.0527518 3.17424e-20)
(-2.85794 -0.0594347 9.28258e-20)
(-2.80286 -0.066167 0)
(-2.74174 -0.0728906 5.8037e-20)
(-2.67456 -0.0795747 5.56442e-20)
(-2.60111 -0.0861403 5.27771e-20)
(-2.52154 -0.092664 0)
(-2.43585 -0.0990218 0)
(-2.34406 -0.10516 0)
(-2.24628 -0.110971 -1.86717e-20)
(-2.14273 -0.116458 -1.45738e-20)
(-2.03367 -0.121553 0)
(-1.91942 -0.126245 -1.73051e-20)
(-1.80037 -0.130475 -9.64393e-21)
(-1.67693 -0.134225 0)
(-1.54957 -0.137452 1.0302e-20)
(-1.41877 -0.140145 3.52984e-20)
(-1.28507 -0.142283 -3.10417e-20)
(-1.14898 -0.143875 -3.64281e-20)
(-1.01106 -0.144934 0)
(-0.871841 -0.145486 0)
(-0.731838 -0.14557 0)
(-0.591554 -0.145252 -9.48882e-20)
(-0.451463 -0.144569 1.02217e-19)
(-0.311963 -0.143613 2.42222e-19)
(-0.173474 -0.142461 -1.40683e-19)
(-0.0353697 -0.141285 1.45303e-19)
(0.10186 -0.140195 1.60724e-19)
(0.236229 -0.138747 0)
(0.366448 -0.135768 0)
(0.492244 -0.131187 -1.76073e-19)
(0.614231 -0.125868 0)
(0.732715 -0.120286 0)
(0.847547 -0.114635 3.95886e-19)
(0.958593 -0.109032 0)
(1.06576 -0.103534 2.0589e-19)
(1.16901 -0.0981838 -2.1527e-19)
(1.26833 -0.0930105 0)
(1.36376 -0.088044 2.18998e-19)
(1.45534 -0.0832749 0)
(1.54317 -0.0787197 0)
(1.62732 -0.0743884 -2.32401e-19)
(1.70787 -0.0702683 4.66635e-19)
(1.78493 -0.0663446 -2.3724e-19)
(1.85863 -0.0626209 0)
(1.92909 -0.0590952 0)
(1.99645 -0.0557669 2.4048e-19)
(2.0608 -0.0526176 0)
(2.12227 -0.0496299 2.43796e-19)
(2.18096 -0.046798 0)
(2.237 -0.0441145 0)
(2.29046 -0.0415633 0)
(2.34144 -0.0391334 2.50521e-19)
(2.39002 -0.0368069 0)
(2.43624 -0.034555 -2.52291e-19)
(2.48011 -0.0323409 0)
(2.5216 -0.0301077 0)
(2.56057 -0.0277702 5.08334e-19)
(2.59677 -0.0252059 -5.10215e-19)
(2.62976 -0.0221559 0)
(2.65859 -0.0181966 0)
(2.68231 -0.0120603 0)
(2.69794 -0.00147983 1.57728e-18)
(2.71343 0.0197426 0)
(2.70103 0.0585304 -1.09089e-18)
(0.00409461 -0.0956059 -1.20106e-21)
(0.0101055 -0.0778878 5.87222e-19)
(0.00758578 -0.0501886 0)
(0.00281536 -0.0254954 -2.51983e-19)
(-0.00513295 -0.00257148 0)
(-0.0160322 0.0189775 0)
(-0.0297308 0.0392244 1.92652e-22)
(-0.0463157 0.0582864 8.09206e-20)
(-0.065983 0.0763595 7.91454e-20)
(-0.0889625 0.0935697 7.97413e-20)
(-0.11576 0.109522 0)
(-0.146475 0.123527 0)
(-0.181077 0.136522 -7.97369e-20)
(-0.219061 0.149332 -1.54983e-19)
(-0.259847 0.162224 1.48961e-19)
(-0.303172 0.174811 0)
(-0.349179 0.187072 1.35535e-19)
(-0.397731 0.19931 -6.46858e-20)
(-0.44793 0.211353 0)
(-0.498854 0.222625 1.16851e-19)
(-0.549884 0.232505 5.56289e-20)
(-0.601163 0.240689 -1.06018e-19)
(-0.653032 0.247126 -5.08627e-20)
(-0.705207 0.251621 0)
(-0.757255 0.254201 9.3849e-20)
(-0.808979 0.254976 9.03707e-20)
(-0.860145 0.254097 0)
(-0.910488 0.251693 8.39821e-20)
(-0.959826 0.247911 0)
(-1.00805 0.242928 7.83884e-20)
(-1.05508 0.23694 3.80387e-20)
(-1.10089 0.230153 0)
(-1.14545 0.222772 0)
(-1.18877 0.214986 0)
(-1.23085 0.206964 0)
(-1.27173 0.198857 0)
(-1.31141 0.190789 0)
(-1.34994 0.182864 6.28619e-20)
(-1.38734 0.175162 -9.23355e-20)
(-1.42366 0.167743 0)
(-1.45894 0.160645 0)
(-1.4932 0.153896 0)
(-1.5265 0.147506 1.78782e-22)
(-1.55888 0.14148 5.60249e-20)
(-1.59037 0.135811 1.09983e-19)
(-1.62102 0.130492 -1.08185e-19)
(-1.65088 0.125507 -5.31532e-20)
(-1.67998 0.120843 5.24908e-20)
(-1.70837 0.116479 -1.5225e-22)
(-1.73608 0.1124 5.07871e-20)
(-1.76315 0.108587 0)
(-1.78962 0.105023 4.93393e-20)
(-1.81553 0.101692 -1.31882e-22)
(-1.84091 0.0985785 0)
(-1.8658 0.0956692 0)
(-1.89023 0.092953 -4.66463e-20)
(-1.91424 0.0904185 0)
(-1.93785 0.0880585 0)
(-1.9611 0.0858641 4.46321e-20)
(-1.98401 0.0838301 8.82196e-20)
(-2.00663 0.0819502 -4.35832e-20)
(-2.02897 0.0802214 0)
(-2.05108 0.0786395 4.23415e-20)
(-2.07297 0.0772023 0)
(-2.09469 0.0759071 4.09409e-20)
(-2.11626 0.0747523 4.04911e-20)
(-2.13772 0.0737362 -7.95922e-20)
(-2.15909 0.0728575 -3.91033e-20)
(-2.18042 0.0721145 0)
(-2.20173 0.0715041 7.59147e-20)
(-2.22305 0.0710236 0)
(-2.24442 0.0706681 1.1029e-19)
(-2.26586 0.0704332 7.22538e-20)
(-2.28741 0.0703098 7.1041e-20)
(-2.3091 0.07029 -6.98336e-20)
(-2.33094 0.0703621 1.03048e-19)
(-2.35296 0.0705167 0)
(-2.37517 0.0707372 0)
(-2.39759 0.0710069 -6.50864e-20)
(-2.42021 0.0713012 -9.60095e-20)
(-2.44305 0.0716006 0)
(-2.46608 0.0718758 3.09575e-20)
(-2.48931 0.0721025 0)
(-2.51272 0.0722514 -8.93502e-20)
(-2.53628 0.072314 -2.98095e-22)
(-2.55995 0.0723161 3.11596e-22)
(-2.58363 0.0722706 5.64701e-20)
(-2.60725 0.0720389 0)
(-2.63076 0.0715704 -5.46447e-20)
(-2.65406 0.0709023 -3.8486e-22)
(-2.67706 0.0699721 0)
(-2.6997 0.0686996 0)
(-2.72185 0.0670622 0)
(-2.74338 0.0650407 5.11953e-20)
(-2.76413 0.0626054 0)
(-2.78396 0.0597443 0)
(-2.8027 0.0564378 0)
(-2.82018 0.0526603 0)
(-2.83623 0.0484046 0)
(-2.85067 0.0436681 4.75668e-20)
(-2.86332 0.0384383 0)
(-2.87401 0.0327146 4.72709e-20)
(-2.88255 0.0264968 4.69689e-20)
(-2.88876 0.0198066 -4.66931e-20)
(-2.89241 0.012663 0)
(-2.89324 0.0051676 -4.61152e-20)
(-2.89072 -0.00262108 0)
(-2.88449 -0.0108497 -4.55243e-20)
(-2.8744 -0.0195379 4.51863e-20)
(-2.86011 -0.0286259 1.33931e-19)
(-2.84144 -0.0381024 0)
(-2.81789 -0.0478682 1.31593e-19)
(-2.78939 -0.0579294 4.3156e-20)
(-2.75572 -0.068294 0)
(-2.71666 -0.0789284 8.39301e-20)
(-2.67195 -0.0897753 8.22464e-20)
(-2.62145 -0.100647 -1.20276e-19)
(-2.56492 -0.111547 0)
(-2.50242 -0.122451 -3.73109e-20)
(-2.43374 -0.133295 -3.56297e-20)
(-2.3589 -0.143938 -1.01733e-19)
(-2.27794 -0.154394 0)
(-2.19089 -0.164535 0)
(-2.09778 -0.174264 0)
(-1.99875 -0.18346 -2.42719e-20)
(-1.89403 -0.192052 0)
(-1.78388 -0.19996 0)
(-1.66865 -0.207122 1.06601e-20)
(-1.54873 -0.21347 5.90443e-21)
(-1.42457 -0.218952 0)
(-1.29663 -0.223518 0)
(-1.16544 -0.227143 -2.11789e-20)
(-1.03153 -0.229805 0)
(-0.895456 -0.231514 4.66296e-20)
(-0.757764 -0.232294 5.64259e-20)
(-0.619001 -0.23219 0)
(-0.479697 -0.231265 0)
(-0.340345 -0.229613 -9.99926e-20)
(-0.201428 -0.227329 -4.47264e-21)
(-0.0631164 -0.224576 -4.53995e-21)
(0.074115 -0.22141 0)
(0.209376 -0.21766 -3.10696e-19)
(0.342022 -0.213212 0)
(0.471504 -0.20816 0)
(0.597344 -0.202469 0)
(0.719407 -0.196024 1.98312e-19)
(0.837823 -0.188934 0)
(0.952635 -0.181472 -4.26034e-19)
(1.06377 -0.173827 -2.25064e-19)
(1.17114 -0.166135 0)
(1.27469 -0.158486 -2.40782e-19)
(1.37442 -0.15095 0)
(1.47033 -0.143582 0)
(1.56244 -0.136428 -7.78297e-19)
(1.65084 -0.1295 5.29389e-19)
(1.73558 -0.122819 0)
(1.81676 -0.11641 5.51191e-19)
(1.89446 -0.110279 -2.82554e-19)
(1.96882 -0.104422 0)
(2.03997 -0.098836 0)
(2.10801 -0.0935176 0)
(2.17307 -0.0884675 -8.92633e-19)
(2.23524 -0.0836672 0)
(2.29467 -0.0791001 -3.05123e-19)
(2.35145 -0.0747563 0)
(2.40569 -0.0706231 0)
(2.45748 -0.0666838 0)
(2.50691 -0.062919 0)
(2.55406 -0.0593037 0)
(2.59897 -0.0557933 0)
(2.64165 -0.0523289 -6.42481e-19)
(2.68207 -0.0488273 0)
(2.72013 -0.0451645 -3.26083e-19)
(2.75562 -0.0411431 9.82737e-19)
(2.78818 -0.0364176 0)
(2.81715 -0.0303843 0)
(2.84194 -0.0217501 -6.70288e-19)
(2.86032 -0.00833228 -6.80494e-19)
(2.87708 0.0154329 6.84697e-19)
(2.8811 0.0591546 7.06771e-19)
(-0.00619764 -0.0984632 -1.79057e-18)
(-0.00928141 -0.0674327 -7.13083e-19)
(-0.0193037 -0.0340541 -2.74197e-19)
(-0.0314017 -0.00413793 -9.99326e-20)
(-0.0457483 0.0237211 0)
(-0.062232 0.0501306 1.43178e-19)
(-0.0808867 0.0753683 -6.5148e-20)
(-0.101817 0.0996019 0)
(-0.125151 0.122943 -5.87922e-20)
(-0.150998 0.145389 0)
(-0.179493 0.166734 1.11451e-19)
(-0.210784 0.186727 0)
(-0.24494 0.205555 5.34783e-20)
(-0.281781 0.223486 1.04216e-19)
(-0.320971 0.240623 -1.01109e-19)
(-0.362158 0.256879 0)
(-0.405124 0.272169 -9.42847e-20)
(-0.449555 0.28642 0)
(-0.494965 0.299441 0)
(-0.540876 0.310966 -8.40831e-20)
(-0.586923 0.32072 0)
(-0.632896 0.328507 8.64519e-23)
(-0.678658 0.334175 0)
(-0.724065 0.337588 0)
(-0.768982 0.33873 -2.30367e-23)
(-0.813317 0.337731 -6.71132e-20)
(-0.856986 0.334784 -6.47949e-20)
(-0.899917 0.330115 -6.2678e-20)
(-0.942051 0.323968 0)
(-0.983347 0.316589 -1.1762e-19)
(-1.02378 0.308218 0)
(-1.06334 0.299084 -5.54399e-20)
(-1.10202 0.289403 0)
(-1.13981 0.279371 0)
(-1.17672 0.269164 5.1206e-20)
(-1.21274 0.258931 0)
(-1.24789 0.248801 -4.88359e-20)
(-1.28218 0.238875 -6.7799e-23)
(-1.31562 0.229234 9.36102e-20)
(-1.34821 0.219937 -9.16713e-20)
(-1.37997 0.211026 0)
(-1.41091 0.202528 0)
(-1.44107 0.194456 -4.32811e-20)
(-1.47046 0.186814 0)
(-1.4991 0.179599 -4.19709e-20)
(-1.52701 0.172801 4.1299e-20)
(-1.55423 0.166406 4.06562e-20)
(-1.58079 0.160399 0)
(-1.60671 0.154759 -3.94449e-20)
(-1.63201 0.149469 -3.88707e-20)
(-1.65673 0.144508 7.65187e-20)
(-1.68091 0.139858 -3.77727e-20)
(-1.70455 0.135499 -3.72445e-20)
(-1.7277 0.131415 0)
(-1.75038 0.127591 0)
(-1.77263 0.124014 3.57218e-20)
(-1.79445 0.120669 0)
(-1.8159 0.117549 0)
(-1.83698 0.114643 -6.85227e-20)
(-1.85773 0.111944 -6.75659e-20)
(-1.87817 0.109446 0)
(-1.89833 0.107143 0)
(-1.91825 0.105033 0)
(-1.93793 0.103111 0)
(-1.95743 0.101375 -6.28394e-20)
(-1.97675 0.0998217 6.18186e-20)
(-1.99594 0.0984491 6.09586e-20)