/*--------------------------------*- C++ -*----------------------------------*\
  =========                 |
  \\      /  F ield         | OpenFOAM: The Open Source CFD Toolbox
   \\    /   O peration     | Website:  https://openfoam.org
    \\  /    A nd           | Version:  13
     \\/     M anipulation  |
\*---------------------------------------------------------------------------*/
FoamFile
{
    format      ascii;
    class       volScalarField;
    location    "0.001";
    object      mag(U);
}
// * * * * * * * * * * * * * * * * * * * * * * * * * * * * * * * * * * * * * //

dimensions      [0 1 -1 0 0 0 0];

internalField   nonuniform List<scalar> 
12225
(
9.88358
9.68311
9.45992
9.22633
9.00888
8.81741
8.6504
8.5077
8.38503
8.28114
8.19113
8.11322
8.04391
7.98167
7.92305
7.86943
7.79696
7.78181
10.0699
10.1358
10.1242
10.0835
10.0388
9.99142
9.93902
9.88071
9.81978
9.7574
9.69594
9.6357
9.57775
9.52222
9.46844
9.41946
9.3657
9.34136
10.0043
10.0323
10.0586
10.0723
10.078
10.0778
10.0717
10.0599
10.0442
10.0252
10.0041
9.98119
9.95711
9.9322
9.90639
9.88105
9.8543
9.83326
9.99799
10.0119
10.0366
10.0539
10.0655
10.074
10.0796
10.082
10.0819
10.0798
10.0761
10.0709
10.0646
10.0574
10.0491
10.0408
10.0323
10.0265
9.99933
10.0093
10.028
10.0424
10.0532
10.0632
10.0717
10.0781
10.0828
10.0861
10.0884
10.0897
10.09
10.0898
10.089
10.0881
10.0877
10.0893
10.0003
10.0083
10.0228
10.0351
10.0452
10.0548
10.0636
10.071
10.0772
10.0824
10.0867
10.0904
10.0934
10.0959
10.0982
10.1006
10.1036
10.1081
10.0004
10.0071
10.0191
10.0302
10.0395
10.0485
10.0569
10.0644
10.0709
10.0767
10.0819
10.0865
10.0906
10.0945
10.0981
10.102
10.1066
10.1122
10.0004
10.0059
10.0161
10.0262
10.035
10.0433
10.0513
10.0586
10.0651
10.0711
10.0765
10.0815
10.0862
10.0907
10.0951
10.0997
10.1048
10.1107
10.0004
10.005
10.0136
10.0228
10.031
10.0388
10.0464
10.0534
10.0599
10.0658
10.0713
10.0765
10.0814
10.0862
10.0909
10.0959
10.1012
10.1071
10.0004
10.0043
10.0115
10.0198
10.0275
10.0349
10.042
10.0488
10.055
10.0609
10.0664
10.0716
10.0767
10.0816
10.0865
10.0916
10.0969
10.1026
10.0003
10.0036
10.0098
10.0171
10.0244
10.0313
10.0381
10.0445
10.0506
10.0564
10.0618
10.0671
10.0721
10.0771
10.0821
10.0871
10.0923
10.0978
10.0003
10.0031
10.0085
10.0151
10.0217
10.0284
10.0348
10.041
10.0469
10.0526
10.058
10.0631
10.0682
10.0732
10.0781
10.0831
10.0881
10.0933
10.0003
10.0027
10.0074
10.0133
10.0195
10.0257
10.0318
10.0378
10.0436
10.0491
10.0544
10.0595
10.0645
10.0694
10.0743
10.0792
10.084
10.0889
10.0002
10.0024
10.0064
10.0117
10.0173
10.0231
10.0288
10.0345
10.04
10.0454
10.0506
10.0556
10.0605
10.0654
10.0701
10.0748
10.0794
10.084
10.0002
10.002
10.0055
10.0101
10.0152
10.0206
10.026
10.0313
10.0366
10.0418
10.0468
10.0518
10.0565
10.0612
10.0658
10.0703
10.0747
10.079
10.0002
10.0017
10.0047
10.0087
10.0134
10.0183
10.0233
10.0284
10.0334
10.0384
10.0432
10.048
10.0526
10.0571
10.0615
10.0658
10.0699
10.0739
10.0002
10.0015
10.0041
10.0076
10.0118
10.0163
10.021
10.0258
10.0306
10.0353
10.04
10.0445
10.049
10.0533
10.0575
10.0615
10.0654
10.0691
10.0001
10.0013
10.0036
10.0069
10.0107
10.015
10.0194
10.0239
10.0285
10.033
10.0374
10.0418
10.046
10.0501
10.0541
10.0579
10.0616
10.065
10.0001
10.0013
10.0035
10.0066
10.0103
10.0144
10.0187
10.0231
10.0275
10.0319
10.0362
10.0404
10.0444
10.0484
10.0521
10.0557
10.0592
10.0625
10.0001
10.0013
10.0037
10.007
10.0109
10.0152
10.0195
10.024
10.0284
10.0328
10.0371
10.0412
10.0452
10.049
10.0527
10.0562
10.0595
10.0627
10.0002
10.0015
10.0041
10.0078
10.0121
10.0166
10.0212
10.0258
10.0304
10.0348
10.0391
10.0433
10.0473
10.051
10.0547
10.0581
10.0614
10.0645
10.0002
10.0017
10.0047
10.009
10.0138
10.0187
10.0236
10.0284
10.0332
10.0378
10.0421
10.0463
10.0503
10.0541
10.0577
10.0611
10.0644
10.0674
10.0002
10.0018
10.0055
10.0106
10.016
10.0213
10.0265
10.0317
10.0366
10.0413
10.0458
10.05
10.0541
10.0579
10.0615
10.0649
10.0681
10.0711
10.0001
10.0018
10.0063
10.0123
10.0184
10.0242
10.0299
10.0353
10.0405
10.0453
10.0499
10.0542
10.0584
10.0622
10.0658
10.0692
10.0724
10.0753
9.9999
10.0016
10.0073
10.0143
10.0208
10.0271
10.0335
10.0395
10.045
10.0501
10.0548
10.0592
10.0632
10.067
10.0704
10.0736
10.0766
10.0793
9.99859
9.99916
10.0078
10.017
10.0243
10.0312
10.0383
10.0449
10.0507
10.0558
10.0604
10.0645
10.0681
10.0713
10.0741
10.0766
10.0787
10.0806
9.99496
9.99336
10.0071
10.0216
10.0319
10.0404
10.0477
10.0538
10.0586
10.0624
10.0654
10.0675
10.0689
10.0698
10.0701
10.07
10.0695
10.0687
9.99482
10.0001
10.0166
10.0327
10.0454
10.0548
10.0604
10.0625
10.062
10.0594
10.0552
10.0498
10.0435
10.0365
10.029
10.021
10.0129
10.0047
10.0407
10.091
10.0935
10.0777
10.0632
10.0496
10.0323
10.0107
9.98601
9.95949
9.93199
9.90407
9.87624
9.84883
9.82208
9.79613
9.7712
9.74732
9.94686
9.87455
9.76462
9.62624
9.48658
9.35883
9.24487
9.14355
9.05393
8.97493
8.90496
8.84271
8.78696
8.7368
8.69133
8.64994
8.61171
8.57631
0.0217628
0.0416396
0.0544099
0.0665233
0.0745831
0.0775828
0.0758277
0.0697391
0.060311
0.0501844
0.036814
0.0157435
0.00884499
0.0247864
0.0459008
0.0710711
0.0973092
0.125091
0.162249
0.204478
0.249841
0.298043
0.349075
0.403639
0.460793
0.518683
0.578165
0.638834
0.700324
0.762204
0.824057
0.885487
0.946146
1.00574
1.06403
1.12084
1.17601
1.22947
1.28118
1.33111
1.37931
1.4258
1.47065
1.51394
1.55573
1.59611
1.63515
1.67294
1.70957
1.7451
1.7796
1.81316
1.84583
1.87767
1.90874
1.9391
1.9688
1.99788
2.0264
2.0544
2.08193
2.10901
2.1357
2.16205
2.18809
2.21387
2.23943
2.26483
2.2901
2.31529
2.34046
2.36567
2.39094
2.41635
2.44196
2.46781
2.49394
2.52041
2.54726
2.57453
2.60224
2.63041
2.65904
2.68814
2.7176
2.74742
2.77769
2.80857
2.83966
2.87082
2.90232
2.93404
2.96573
2.99725
3.02842
3.05902
3.08886
3.11772
3.14531
3.17135
3.19556
3.21759
3.23701
3.25333
3.26582
3.27382
3.2778
3.2785
3.27489
3.26704
3.25447
3.23745
3.21546
3.18822
3.15559
3.11715
3.07291
3.02304
2.96698
2.90485
2.8367
2.76254
2.68241
2.59634
2.5044
2.40682
2.30384
2.19579
2.08303
1.96594
1.84496
1.72055
1.59322
1.46346
1.33181
1.19876
1.06484
0.930545
0.796389
0.662902
0.530737
0.400833
0.275079
0.159481
0.0928835
0.162621
0.278334
0.398703
0.517335
0.632596
0.74387
0.850918
0.953678
1.05216
1.14638
1.23648
1.32259
1.40482
1.48329
1.55814
1.62951
1.69755
1.76239
1.82417
1.883
1.939
1.99229
2.04295
2.09106
2.1367
2.17985
2.2205
2.25849
2.29354
2.32516
2.35187
2.37311
2.37765
2.36859
2.25394
0.0671169
0.0712926
0.0599073
0.0504227
0.0419462
0.0349313
0.0308554
0.0313102
0.0375375
0.0497816
0.0683849
0.0910701
0.119775
0.153875
0.191635
0.232448
0.276539
0.324221
0.37519
0.427719
0.481224
0.536153
0.59264
0.650688
0.70974
0.768942
0.827987
0.886434
0.943932
1.00022
1.05512
1.10849
1.16026
1.21037
1.25883
1.30565
1.35084
1.39447
1.43659
1.47728
1.51658
1.55458
1.59137
1.62701
1.66155
1.69509
1.72767
1.75937
1.79024
1.82034
1.84971
1.87842
1.9065
1.934
1.96098
1.98746
2.01349
2.03909
2.06432
2.08921
2.11379
2.13809
2.16216
2.18603
2.20974
2.23332
2.2568
2.28025
2.30367
2.32711
2.35062
2.37422
2.39796
2.42187
2.44597
2.47031
2.49491
2.51978
2.54492
2.57035
2.59606
2.62203
2.64825
2.67469
2.70139
2.72827
2.75525
2.78218
2.80898
2.83563
2.86195
2.88785
2.9132
2.93781
2.96151
2.98412
3.00542
3.02524
3.04336
3.05958
3.07373
3.08564
3.0952
3.10231
3.10708
3.10961
3.10925
3.10501
3.09692
3.08458
3.06788
3.04626
3.01948
2.98761
2.95026
2.90732
2.85856
2.80364
2.74271
2.67574
2.60254
2.52324
2.43786
2.34642
2.24902
2.14589
2.0373
1.92357
1.80509
1.68229
1.55565
1.42567
1.29292
1.15795
1.0214
0.883896
0.746175
0.609126
0.474045
0.343432
0.224474
0.145645
0.173292
0.273961
0.39079
0.509425
0.626995
0.742523
0.855264
0.964774
1.07078
1.17313
1.27174
1.3666
1.45772
1.54518
1.62902
1.70931
1.78616
1.85968
1.92999
1.99723
2.06147
2.12285
2.18146
2.23743
2.29084
2.34177
2.3903
2.43649
2.48032
2.52178
2.56072
2.59689
2.62985
2.65865
2.68234
2.69794
2.7135
2.70166
0.0956935
0.0785406
0.0507586
0.0256504
0.00574105
0.024843
0.0492186
0.0744476
0.100918
0.129111
0.159359
0.191609
0.226776
0.265118
0.306328
0.34996
0.396134
0.444876
0.495289
0.546276
0.597018
0.647556
0.698228
0.748752
0.798782
0.84821
0.896892
0.944636
0.991325
1.03691
1.08136
1.12469
1.16691
1.20805
1.24813
1.28718
1.32522
1.36227
1.39835
1.43351
1.46776
1.50111
1.53361
1.56529
1.59616
1.62626
1.65564
1.68432
1.71234
1.73971
1.76649
1.7927
1.81838
1.84355
1.86825
1.89251
1.91637
1.93985
1.96298
1.98578
2.0083
2.03056
2.05259
2.07441
2.09606
2.11758
2.13899
2.16032
2.18161
2.20289
2.22418
2.24553
2.26695
2.28849
2.31017
2.332
2.35402
2.37622
2.39864
2.42126
2.4441
2.46713
2.49035
2.51376
2.53731
2.56097
2.58464
2.60825
2.63173
2.65501
2.67797
2.70057
2.72268
2.74415
2.76484
2.7846
2.80327
2.82067
2.83664
2.851
2.86358
2.8742
2.88267
2.88883
2.89244
2.89324
2.89072
2.88451
2.87447
2.86025
2.8417
2.8183
2.78999
2.75657
2.71781
2.67346
2.62338
2.56734
2.50541
2.43739
2.36329
2.28317
2.19706
2.10501
2.00715
1.90374
1.79505
1.68146
1.56337
1.4413
1.31575
1.18737
1.05682
0.9249
0.79257
0.661116
0.532534
0.410557
0.30373
0.233277
0.233485
0.302017
0.403036
0.515409
0.630725
0.745635
0.858862
0.969766
1.07788
1.18287
1.2845
1.38268
1.47732
1.56838
1.65591
1.73992
1.82049
1.89767
1.97159
2.04236
2.11008
2.17487
2.23681
2.29603
2.35264
2.40673
2.45838
2.5077
2.55475
2.59957
2.64217
2.68251
2.7205
2.75593
2.78842
2.81731
2.84202
2.86033
2.87712
2.88171
0.0986581
0.0680684
0.0391448
0.0316732
0.0515325
0.0799118
0.110558
0.142433
0.175436
0.209615
0.244986
0.281597
0.319763
0.359648
0.401151
0.44401
0.488059
0.533044
0.578494
0.623896
0.668835
0.713074
0.756472
0.798897
0.840281
0.880651
0.920057
0.958554
0.9962
1.03305
1.06917
1.1046
1.13939
1.17355
1.20711
1.24007
1.27245
1.30424
1.33544
1.36603
1.39601
1.42537
1.45413
1.48228
1.50982
1.53676
1.56311
1.58891
1.61415
1.63884
1.66302
1.68672
1.70993
1.73269
1.75502
1.77696
1.7985
1.8197
1.84055
1.8611
1.88136
1.90135
1.92112
1.94067
1.96005
1.97927
1.99837
2.01737
2.0363
2.05518
2.07406
2.09295
2.1119
2.13091
2.15002
2.16926
2.18863
2.20818
2.22788
2.24775
2.26782
2.28805
2.30845
2.32901
2.3497
2.37048
2.39128
2.41205
2.4327
2.45317
2.4734
2.49332
2.51281
2.53175
2.55003
2.56749
2.58398
2.59936
2.61344
2.62605
2.637
2.6461
2.65311
2.65779
2.6599
2.6591
2.65506
2.64751
2.63621
2.62089
2.60131
2.57716
2.54826
2.51437
2.4753
2.43087
2.3809
2.32523
2.26378
2.19645
2.12329
2.04432
1.95961
1.86923
1.77339
1.67232
1.56637
1.45595
1.34158
1.22383
1.10344
0.981295
0.858505
0.736622
0.617974
0.506478
0.40937
0.340009
0.317226
0.349452
0.422833
0.518458
0.624382
0.734386
0.845224
0.955203
1.06344
1.16941
1.27271
1.37304
1.47022
1.5641
1.65462
1.74175
1.82548
1.90585
1.98293
2.05678
2.12752
2.19523
2.26002
2.32202
2.3813
2.43801
2.49223
2.54406
2.59357
2.64087
2.68602
2.72905
2.77
2.80883
2.84546
2.87971
2.91134
2.93988
2.96507
2.98558
3.00544
3.01856
0.0777009
0.0460582
0.0410243
0.0662083
0.0993696
0.134409
0.170297
0.206837
0.244006
0.281786
0.320131
0.359004
0.398434
0.438405
0.478803
0.519439
0.560108
0.600561
0.640515
0.679711
0.717936
0.755036
0.790917
0.825546
0.858962
0.891275
0.922622
0.953149
0.982992
1.01227
1.04107
1.06948
1.09756
1.12535
1.15284
1.18008
1.20704
1.2337
1.26005
1.28606
1.31171
1.33697
1.36182
1.38625
1.41025
1.43381
1.45691
1.47956
1.50178
1.52354
1.54487
1.56577
1.58624
1.60632
1.62601
1.64532
1.66428
1.68289
1.70118
1.71917
1.73687
1.75431
1.77151
1.78849
1.80527
1.82189
1.83837
1.85474
1.87101
1.88722
1.90341
1.91959
1.9358
1.95205
1.96838
1.98482
2.00139
2.0181
2.03496
2.05199
2.0692
2.08658
2.10414
2.12185
2.13971
2.15768
2.1757
2.19373
2.2117
2.22954
2.2472
2.2646
2.28166
2.29825
2.31426
2.32956
2.34399
2.35741
2.36966
2.38053
2.38986
2.39743
2.40299
2.40631
2.40711
2.40513
2.40007
2.39167
2.3797
2.36391
2.34405
2.31989
2.29118
2.25772
2.21935
2.17587
2.12711
2.07293
2.01322
1.94799
1.87725
1.80106
1.71949
1.63271
1.54094
1.44452
1.34387
1.23956
1.1323
1.02301
0.912884
0.803588
0.697531
0.598404
0.51207
0.447499
0.415935
0.425099
0.472187
0.54653
0.637428
0.737422
0.841888
0.948007
1.05404
1.15893
1.26203
1.36289
1.46119
1.55667
1.64915
1.73853
1.82471
1.90766
1.98738
2.06392
2.13732
2.20764
2.27497
2.33942
2.40107
2.46004
2.51645
2.5704
2.62201
2.67134
2.7185
2.76357
2.80661
2.84766
2.88675
2.92388
2.95896
2.99189
3.02249
3.05049
3.07587
3.09795
3.12045
3.13883
0.0416686
0.0362776
0.0696048
0.108604
0.147877
0.187062
0.226296
0.26566
0.305171
0.344783
0.384403
0.423911
0.463192
0.502111
0.540513
0.578219
0.615047
0.650821
0.685371
0.718564
0.750308
0.780564
0.809345
0.83672
0.86281
0.887775
0.9118
0.935072
0.957764
0.980031
1.002
1.02378
1.04544
1.06704
1.0886
1.11013
1.13164
1.15309
1.17446
1.19573
1.21683
1.23776
1.25848
1.27894
1.29913
1.31902
1.33861
1.35785
1.37675
1.3953
1.41348
1.4313
1.44876
1.46587
1.48262
1.49903
1.5151
1.53084
1.54627
1.5614
1.57624
1.59082
1.60514
1.61924
1.63313
1.64684
1.66039
1.67381
1.68713
1.70037
1.71356
1.72673
1.73993
1.75316
1.76645
1.77985
1.79337
1.80703
1.82085
1.83485
1.84904
1.86342
1.87799
1.89276
1.90769
1.92278
1.93797
1.95323
1.96847
1.98366
1.99874
2.01363
2.02826
2.04251
2.05626
2.0694
2.08178
2.09326
2.10367
2.11284
2.12058
2.12667
2.13091
2.13303
2.13281
2.12998
2.12428
2.11549
2.10335
2.08765
2.06815
2.04463
2.01688
1.98471
1.94793
1.90636
1.85988
1.80836
1.75176
1.69009
1.62339
1.55177
1.47537
1.39446
1.30937
1.22063
1.12889
1.03508
0.940392
0.846522
0.755819
0.671644
0.598773
0.543602
0.51335
0.513424
0.544181
0.600729
0.676029
0.763703
0.858952
0.958441
1.05988
1.16172
1.26289
1.36266
1.46057
1.55626
1.64946
1.73995
1.82759
1.91228
1.99394
2.07254
2.14808
2.2206
2.29014
2.35676
2.42055
2.48158
2.53995
2.59579
2.64917
2.70023
2.74905
2.79573
2.84038
2.88307
2.92385
2.96279
2.9999
3.03519
3.06862
3.10012
3.12962
3.15696
3.1823
3.20543
3.22987
3.25153
0.029222
0.0720392
0.114392
0.156321
0.19751
0.238232
0.278729
0.319077
0.35924
0.399114
0.438545
0.477348
0.515328
0.552286
0.588032
0.622386
0.655194
0.68633
0.715703
0.743263
0.769006
0.792975
0.815263
0.836006
0.855379
0.873585
0.890838
0.907353
0.92333
0.938954
0.954379
0.969731
0.985112
1.00059
1.01621
1.03199
1.04793
1.06403
1.08024
1.09654
1.1129
1.12925
1.14557
1.1618
1.17791
1.19387
1.20964
1.2252
1.24051
1.25556
1.27032
1.2848
1.29897
1.31282
1.32636
1.33957
1.35248
1.36506
1.37735
1.38933
1.40101
1.41243
1.42358
1.4345
1.4452
1.45569
1.46601
1.47618
1.48624
1.49621
1.50612
1.51599
1.52588
1.5358
1.54579
1.55588
1.56609
1.57646
1.587
1.59775
1.6087
1.61988
1.63128
1.64292
1.65477
1.66683
1.67904
1.69138
1.7038
1.71623
1.72861
1.74089
1.753
1.76481
1.77622
1.78713
1.79739
1.80686
1.8154
1.82284
1.82899
1.83366
1.83664
1.83771
1.83664
1.8332
1.82715
1.8183
1.80642
1.79129
1.77272
1.7505
1.72444
1.69437
1.66011
1.62155
1.57858
1.53116
1.47928
1.42303
1.36252
1.29794
1.22964
1.15805
1.0838
1.00779
0.93121
0.855707
0.783511
0.717624
0.661928
0.621066
0.599757
0.601385
0.626628
0.673208
0.737057
0.81377
0.899476
0.991107
1.08633
1.18342
1.28108
1.37834
1.47451
1.56909
1.66173
1.75215
1.84014
1.92553
2.0082
2.08804
2.16503
2.23911
2.31032
2.37866
2.44419
2.50698
2.56707
2.62457
2.67955
2.73212
2.78238
2.83044
2.87637
2.92032
2.96234
3.00253
3.04095
3.07765
3.11267
3.14605
3.17774
3.20774
3.23604
3.2626
3.28773
3.31145
3.33718
3.36077
0.0795711
0.126216
0.167214
0.207842
0.24812
0.288139
0.327988
0.36762
0.406903
0.44565
0.483643
0.520642
0.5564
0.590683
0.62328
0.654008
0.682728
0.709348
0.733819
0.756146
0.776378
0.794614
0.810991
0.825689
0.838915
0.850895
0.861867
0.872061
0.881703
0.890995
0.900115
0.909216
0.918419
0.927817
0.937473
0.947428
0.957695
0.968273
0.979142
0.990272
1.00162
1.01315
1.0248
1.03654
1.0483
1.06005
1.07174
1.08332
1.09477
1.10604
1.11712
1.12796
1.13856
1.14889
1.15893
1.16869
1.17815
1.1873
1.19615
1.2047
1.21296
1.22093
1.22863
1.23607
1.24327
1.25027
1.25706
1.2637
1.27019
1.2766
1.28292
1.28921
1.2955
1.30183
1.30823
1.31473
1.32138
1.32819
1.33521
1.34246
1.34994
1.35769
1.36571
1.37401
1.38257
1.3914
1.40045
1.40969
1.41909
1.42857
1.4381
1.4476
1.45702
1.46623
1.47516
1.48367
1.49166
1.49901
1.50555
1.51115
1.51564
1.51885
1.52058
1.52062
1.51879
1.51489
1.50872
1.50009
1.48882
1.47474
1.45764
1.4374
1.41385
1.38686
1.35634
1.32221
1.28447
1.24317
1.19845
1.15048
1.09961
1.04626
0.991083
0.934962
0.87909
0.825042
0.774887
0.731187
0.696968
0.675422
0.669409
0.680687
0.70948
0.754461
0.81329
0.883247
0.961706
1.04636
1.1353
1.22697
1.32011
1.41372
1.50704
1.59944
1.69044
1.77968
1.86693
1.95196
2.03462
2.11476
2.19231
2.26718
2.33934
2.40877
2.47548
2.53952
2.60091
2.6597
2.71598
2.76981
2.82129
2.8705
2.91755
2.96251
3.0055
3.04661
3.08592
3.12354
3.1595
3.19389
3.22674
3.25811
3.28799
3.31642
3.34343
3.36908
3.39379
3.41773
3.44417
3.46877
0.140187
0.185935
0.223813
0.261316
0.298888
0.336528
0.374175
0.411665
0.448766
0.485215
0.520735
0.555041
0.587851
0.618909
0.64799
0.674912
0.69954
0.721797
0.74166
0.759154
0.774359
0.787398
0.798432
0.807659
0.815301
0.821593
0.826781
0.831111
0.834817
0.838116
0.841208
0.844265
0.84743
0.850821
0.854527
0.858608
0.863101
0.86802
0.873359
0.879101
0.885212
0.89165
0.898367
0.905312
0.912428
0.919665
0.926966
0.934281
0.941561
0.948761
0.955841
0.962764
0.969495
0.976006
0.982275
0.98828
0.994005
0.999438
1.00457
1.00941
1.01394
1.01818
1.02213
1.02581
1.02924
1.03243
1.03542
1.03822
1.04088
1.04343
1.04588
1.04831
1.05072
1.05317
1.05571
1.05836
1.06118
1.06419
1.06743
1.07093
1.07471
1.07881
1.08322
1.08797
1.09304
1.09842
1.1041
1.11005
1.11621
1.12253
1.12899
1.13549
1.14199
1.14838
1.15459
1.16049
1.16598
1.17095
1.17528
1.17886
1.18152
1.1831
1.18346
1.18243
1.17986
1.17558
1.16945
1.16133
1.15108
1.13859
1.12375
1.10646
1.08667
1.06436
1.03953
1.01228
0.98277
0.951273
0.918167
0.883977
0.849404
0.815371
0.783072
0.753989
0.729884
0.712708
0.704465
0.706938
0.721393
0.748319
0.787431
0.837763
0.897924
0.966332
1.04141
1.12169
1.20587
1.29278
1.38146
1.47105
1.56085
1.65024
1.73875
1.82596
1.91155
1.99528
2.07697
2.15645
2.23362
2.30838
2.38066
2.45041
2.51761
2.58224
2.64434
2.70392
2.76102
2.81572
2.86806
2.91811
2.96597
3.01173
3.05546
3.09726
3.13721
3.17541
3.21196
3.24691
3.28036
3.31237
3.34298
3.37227
3.40027
3.42704
3.45268
3.47731
3.50142
3.52523
3.55188
3.5768
0.202232
0.246871
0.281258
0.314848
0.348678
0.382805
0.417113
0.451365
0.485259
0.51848
0.550708
0.581626
0.610933
0.638359
0.663671
0.686684
0.707267
0.725346
0.740901
0.753967
0.76463
0.773015
0.779288
0.783645
0.786306
0.787505
0.787484
0.786488
0.784753
0.782505
0.779952
0.777281
0.774657
0.772217
0.770072
0.76831
0.76699
0.766151
0.765808
0.76596
0.766585
0.767657
0.769132
0.770961
0.773091
0.775464
0.778021
0.780705
0.783458
0.786224
0.788954
0.7916
0.794117
0.796468
0.798617
0.800535
0.802198
0.803585
0.804683
0.805483
0.80598
0.806176
0.806077
0.805694
0.805043
0.804146
0.803027
0.801714
0.800244
0.798651
0.796974
0.795256
0.793543
0.79188
0.790312
0.788887
0.787649
0.786641
0.785901
0.785466
0.785365
0.785621
0.786253
0.787269
0.788667
0.790438
0.792562
0.795009
0.797729
0.800677
0.803806
0.807053
0.810344
0.813597
0.816729
0.819651
0.822274
0.824506
0.826256
0.827423
0.827898
0.827565
0.826316
0.824058
0.820699
0.816154
0.810362
0.803278
0.794877
0.785166
0.774184
0.762016
0.748794
0.734733
0.720128
0.705399
0.691078
0.67785
0.666519
0.658047
0.653472
0.653912
0.660441
0.674025
0.695384
0.724938
0.762725
0.80851
0.861789
0.921875
0.987968
1.05923
1.13482
1.21392
1.29577
1.37966
1.46494
1.55102
1.63737
1.72352
1.80904
1.89359
1.97682
2.0585
2.13841
2.21638
2.2923
2.36605
2.43756
2.50677
2.57363
2.63812
2.70021
2.75991
2.81724
2.87224
2.92494
2.97541
3.0237
3.06987
3.11401
3.1562
3.19653
3.23508
3.27192
3.30715
3.34085
3.37309
3.40396
3.43351
3.46184
3.48898
3.51503
3.54008
3.56426
3.58775
3.61107
3.63446
3.66093
3.68567
0.262693
0.306382
0.337295
0.366707
0.396274
0.42622
0.45644
0.486685
0.516633
0.545943
0.574274
0.601296
0.626703
0.650219
0.67161
0.690692
0.707331
0.721451
0.733027
0.74209
0.748714
0.75302
0.755158
0.75531
0.753681
0.75049
0.745964
0.740334
0.733826
0.726662
0.719049
0.711175
0.703216
0.695323
0.687625
0.680229
0.673221
0.66666
0.660588
0.655027
0.649976
0.645426
0.641348
0.637708
0.634458
0.631548
0.628918
0.626513
0.62427
0.622131
0.620038
0.617935
0.615773
0.613502
0.611082
0.608473
0.605643
0.602565
0.59922
0.595592
0.591674
0.587461
0.582956
0.578171
0.573119
0.567822
0.562305
0.556601
0.550745
0.54478
0.538749
0.532701
0.526687
0.52076
0.514973
0.509379
0.50403
0.498973
0.494252
0.489906
0.485963
0.482447
0.479368
0.476729
0.47452
0.472719
0.471295
0.4702
0.469381
0.468776
0.468321
0.467952
0.467588
0.467151
0.466567
0.465768
0.464697
0.463303
0.461547
0.459393
0.456817
0.453808
0.450383
0.4466
0.442537
0.438326
0.434144
0.430225
0.426869
0.424446
0.423394
0.424221
0.427482
0.433773
0.443688
0.457792
0.476561
0.500356
0.529394
0.563769
0.603463
0.648357
0.69824
0.752874
0.811984
0.875266
0.942371
1.01293
1.08657
1.16286
1.24139
1.32176
1.40353
1.48633
1.56976
1.65345
1.73709
1.82034
1.90293
1.98458
2.06505
2.14413
2.22164
2.29741
2.37132
2.44327
2.51318
2.58099
2.64665
2.71012
2.7714
2.83045
2.88729
2.94191
2.99435
3.04464
3.09282
3.13894
3.18307
3.22525
3.26558
3.30413
3.34096
3.37616
3.40981
3.44199
3.47278
3.50224
3.53046
3.55751
3.58348
3.60844
3.63249
3.65575
3.67838
3.7006
3.72296
3.7457
3.77166
3.79585
0.319655
0.362589
0.390198
0.415442
0.440568
0.466001
0.491712
0.517482
0.543009
0.567955
0.591987
0.614781
0.636039
0.65549
0.672908
0.688111
0.700965
0.71139
0.719354
0.724874
0.728011
0.728866
0.727568
0.724277
0.719172
0.712446
0.704304
0.694951
0.684594
0.673434
0.661663
0.649461
0.636997
0.624419
0.611865
0.599449
0.587266
0.575397
0.563899
0.552815
0.54217
0.531971
0.522216
0.512885
0.50395
0.495377
0.487118
0.479126
0.47135
0.463733
0.456222
0.448763
0.441306
0.433801
0.426204
0.418474
0.410577
0.402485
0.394175
0.385631
0.376844
0.367812
0.358541
0.349041
0.339334
0.32945
0.319422
0.309296
0.29912
0.288956
0.278868
0.268928
0.259214
0.249809
0.240792
0.232249
0.224255
0.216879
0.210177
0.204182
0.19891
0.194345
0.190444
0.187136
0.184319
0.181868
0.179641
0.177476
0.175204
0.172652
0.169653
0.166036
0.161647
0.156337
0.149978
0.142457
0.133684
0.123599
0.112196
0.0995581
0.08594
0.0720008
0.0592962
0.0513113
0.053148
0.0665259
0.0884079
0.115841
0.147359
0.18228
0.220316
0.261315
0.305225
0.352003
0.401651
0.454146
0.509489
0.567638
0.628571
0.692215
0.758515
0.827352
0.898598
0.972084
1.04764
1.12505
1.20406
1.28442
1.36583
1.448
1.53064
1.61346
1.6962
1.77859
1.86041
1.94146
2.02155
2.1005
2.17818
2.25442
2.32912
2.40216
2.47345
2.5429
2.61046
2.67606
2.7397
2.80132
2.86091
2.91847
2.97398
3.02744
3.07887
3.12828
3.17569
3.22114
3.26468
3.30635
3.3462
3.3843
3.42072
3.45552
3.48877
3.52055
3.55094
3.57999
3.60779
3.63439
3.65991
3.6844
3.70796
3.73069
3.75268
3.77408
3.79509
3.81594
3.83719
3.85905
3.88423
3.90761
0.371798
0.414166
0.438701
0.459938
0.480653
0.501488
0.522516
0.543582
0.56443
0.584761
0.60427
0.622657
0.639645
0.654987
0.668469
0.67992
0.689209
0.696255
0.701021
0.703509
0.703766
0.70187
0.697931
0.692079
0.684467
0.675259
0.664629
0.652756
0.63982
0.62599
0.611439
0.596324
0.580794
0.564985
0.54902
0.533005
0.517034
0.501184
0.485516
0.470081
0.454914
0.440034
0.425454
0.411173
0.39718
0.383459
0.369985
0.356733
0.343669
0.33076
0.317976
0.305285
0.292661
0.280081
0.267529
0.254995
0.242485
0.230011
0.21761
0.20533
0.193248
0.181469
0.170132
0.159426
0.149584
0.140894
0.133691
0.128334
0.125154
0.124398
0.126166
0.130385
0.13683
0.145177
0.155067
0.166142
0.178081
0.190599
0.20345
0.216421
0.22933
0.242012
0.254329
0.266152
0.277374
0.287895
0.297629
0.306509
0.314474
0.321481
0.327499
0.332523
0.336578
0.339723
0.342036
0.343629
0.344654
0.345306
0.345849
0.346615
0.348014
0.350516
0.354637
0.360906
0.369872
0.382038
0.397844
0.417641
0.441673
0.470083
0.502922
0.540171
0.581746
0.627527
0.677365
0.73109
0.788527
0.849485
0.913774
0.981179
1.05148
1.12441
1.1997
1.27703
1.35608
1.43652
1.51797
1.60007
1.68248
1.76485
1.84687
1.92823
2.00871
2.08807
2.16614
2.24277
2.31785
2.39131
2.46307
2.5331
2.60134
2.66776
2.73233
2.79504
2.85586
2.9148
2.97186
3.02703
3.08031
3.13173
3.18128
3.22897
3.27483
3.31888
3.36113
3.40163
3.44041
3.47751
3.51299
3.54692
3.57933
3.6103
3.63989
3.66817
3.69519
3.72104
3.74578
3.76948
3.79223
3.81412
3.83522
3.85566
3.87554
3.89503
3.91433
3.93372
3.95372
3.97453
3.99871
4.02108
0.418273
0.460242
0.481961
0.499423
0.51588
0.532181
0.548516
0.564814
0.580891
0.596507
0.611404
0.625328
0.638039
0.649319
0.658982
0.666873
0.672875
0.676912
0.678944
0.678969
0.677022
0.673166
0.66749
0.660105
0.651141
0.640736
0.62904
0.61621
0.6024
0.587761
0.572437
0.556566
0.540281
0.523703
0.50694
0.490091
0.473243
0.456471
0.439843
0.423413
0.40723
0.391334
0.375761
0.360544
0.345715
0.331308
0.317361
0.303919
0.291039
0.27879
0.267259
0.256556
0.246809
0.238168
0.230802
0.224892
0.220625
0.218173
0.217684
0.219258
0.222942
0.228719
0.236519
0.246225
0.257688
0.270737
0.285194
0.300883
0.317632
0.335277
0.353663
0.372645
0.392084
0.411852
0.431825
0.451883
0.471914
0.491809
0.511462
0.530775
0.549651
0.568001
0.585738
0.602784
0.61907
0.634531
0.649114
0.662775
0.675487
0.687226
0.697984
0.707782
0.716663
0.724692
0.731949
0.738536
0.744573
0.750211
0.755634
0.761084
0.766831
0.77318
0.780458
0.789009
0.799201
0.811409
0.826005
0.843359
0.863817
0.887696
0.915271
0.946776
0.982373
1.02217
1.06621
1.11446
1.16686
1.22331
1.28361
1.34756
1.41487
1.48522
1.5582
1.63343
1.71045
1.78882
1.86807
1.94778
2.02749
2.1068
2.18533
2.26277
2.33881
2.41324
2.48592
2.55672
2.62559
2.69252
2.75748
2.82052
2.88163
2.94086
2.99821
3.05372
3.10742
3.15934
3.20951
3.25796
3.30469
3.34975
3.39315
3.43489
3.47503
3.51356
3.55051
3.58592
3.61982
3.65225
3.68328
3.71292
3.74124
3.76829
3.79414
3.81882
3.84242
3.86499
3.88661
3.90734
3.92727
3.94649
3.9651
3.9832
4.00093
4.01845
4.03599
4.05382
4.07245
4.09205
4.11506
4.13628
0.458734
0.500477
0.519639
0.533568
0.545946
0.557824
0.569522
0.581072
0.592374
0.603264
0.61355
0.623036
0.631534
0.638867
0.644886
0.649464
0.652506
0.653952
0.653772
0.65197
0.648578
0.643657
0.637293
0.629586
0.620654
0.610624
0.599635
0.58783
0.575352
0.562342
0.548942
0.535281
0.52149
0.507687
0.493985
0.480489
0.467298
0.454503
0.44219
0.430441
0.419337
0.408955
0.399374
0.390671
0.382927
0.376222
0.370642
0.366268
0.363184
0.36147
0.361202
0.362446
0.365257
0.369677
0.375727
0.383412
0.39272
0.403621
0.416068
0.429999
0.445347
0.462028
0.47996
0.499049
0.519204
0.540328
0.562323
0.58509
0.608527
0.632536
0.657013
0.681857
0.706966
0.732235
0.757564
0.78285
0.807991
0.832891
0.857449
0.881572
0.90517
0.928157
0.950451
0.971978
0.992671
1.01247
1.03132
1.0492
1.06606
1.08191
1.09672
1.11051
1.12335
1.1353
1.14642
1.15682
1.16659
1.17588
1.18484
1.19368
1.20263
1.21193
1.22185
1.23267
1.24468
1.2582
1.27353
1.29099
1.31091
1.33359
1.35933
1.38837
1.42096
1.45728
1.49744
1.54154
1.58961
1.64158
1.69739
1.75683
1.81965
1.88552
1.95408
2.0249
2.09751
2.17145
2.24619
2.32127
2.39616
2.47039
2.54353
2.61523
2.68518
2.7532
2.81911
2.88285
2.94442
3.00384
3.06115
3.11644
3.16976
3.2212
3.27081
3.31868
3.36485
3.4094
3.45237
3.49381
3.53377
3.57224
3.60929
3.64493
3.67917
3.71204
3.74356
3.77377
3.80268
3.83034
3.85678
3.88206
3.9062
3.92925
3.95126
3.97228
3.99238
4.01162
4.03005
4.04776
4.06483
4.08135
4.09742
4.11314
4.12866
4.14416
4.15987
4.17606
4.19323
4.21151
4.2332
4.25316
0.494301
0.535985
0.552714
0.563188
0.571501
0.578911
0.585881
0.592562
0.598957
0.604994
0.610564
0.615543
0.619804
0.623231
0.625722
0.627193
0.62759
0.626881
0.625067
0.622171
0.618245
0.613367
0.607629
0.601142
0.59403
0.586424
0.578464
0.570293
0.56205
0.553872
0.54589
0.538226
0.530996
0.524304
0.518243
0.512897
0.508339
0.504632
0.501831
0.499984
0.499134
0.499315
0.500561
0.502901
0.506361
0.510962
0.516727
0.523673
0.53182
0.541182
0.551773
0.563602
0.576678
0.591
0.606564
0.623358
0.641363
0.660553
0.680897
0.702354
0.72488
0.748425
0.772933
0.798346
0.824596
0.851617
0.879336
0.907675
0.936552
0.96588
0.995571
1.02553
1.05567
1.08589
1.11608
1.14616
1.17603
1.20557
1.2347
1.26333
1.29135
1.3187
1.34529
1.37104
1.3959
1.41978
1.44267
1.4645
1.48526
1.50493
1.5235
1.54101
1.55749
1.57302
1.58767
1.60152
1.61469
1.62727
1.63944
1.65136
1.66325
1.67532
1.68779
1.70092
1.71494
1.73011
1.74672
1.76503
1.78534
1.8079
1.833
1.86092
1.89184
1.92598
1.96347
2.00443
2.04893
2.09694
2.14843
2.20323
2.26114
2.32188
2.38513
2.45048
2.51749
2.58566
2.65444
2.72329
2.79169
2.85915
2.92524
2.98958
3.05191
3.112
3.16976
3.22517
3.27824
3.32906
3.37773
3.42435
3.46905
3.51194
3.55312
3.59272
3.63081
3.66747
3.70278
3.7368
3.76957
3.80114
3.83152
3.86075
3.88883
3.91579
3.94166
3.96644
3.99017
4.01286
4.03455
4.05528
4.07506
4.09395
4.11198
4.1292
4.14566
4.16144
4.17658
4.19117
4.20527
4.21899
4.23242
4.24567
4.25891
4.27229
4.28606
4.30049
4.31605
4.33286
4.35307
4.37164
0.523834
0.5655
0.579841
0.586901
0.591168
0.594117
0.59636
0.59818
0.599692
0.600926
0.601864
0.602459
0.602662
0.602421
0.601701
0.600482
0.598766
0.596578
0.593968
0.591013
0.587806
0.584463
0.581108
0.577877
0.574905
0.572328
0.570276
0.56887
0.568219
0.568415
0.569527
0.571613
0.574708
0.578832
0.58399
0.590178
0.597376
0.605566
0.614724
0.624823
0.635842
0.647759
0.660556
0.67422
0.68874
0.70411
0.720327
0.737395
0.755318
0.774106
0.793769
0.814318
0.835765
0.85812
0.881388
0.905568
0.930654
0.956635
0.983494
1.01121
1.03974
1.06907
1.09915
1.12995
1.16141
1.19347
1.22608
1.25919
1.29272
1.32658
1.36071
1.39502
1.42942
1.46381
1.49813
1.53224
1.56607
1.59952
1.63249
1.6649
1.69666
1.72769
1.7579
1.78723
1.81561
1.84298
1.8693
1.89453
1.91863
1.94161
1.96344
1.98417
2.00383
2.02248
2.04021
2.05711
2.07326
2.08878
2.10382
2.11854
2.13312
2.14776
2.16266
2.17802
2.19406
2.21101
2.22909
2.24856
2.26967
2.29266
2.31778
2.34525
2.37527
2.40802
2.44364
2.48222
2.52383
2.5685
2.61618
2.66677
2.72011
2.77594
2.83394
2.89372
2.9548
3.01668