# vtk DataFile Version 2.0
tracks
ASCII
DATASET POLYDATA
POINTS 12065 float
-0.0206 0.00099996 1e-05 -0.02058 0.000999963 1e-05 -0.02056 0.000999968 1e-05 -0.02054 0.000999976
1e-05 -0.02052 0.000999987 1e-05 -0.0205 0.001 1e-05 -0.0202034 0.0010002 1e-05
-0.0199069 0.00100061 1e-05 -0.0196103 0.00100122 1e-05 -0.0193137 0.00100202 1e-05 -0.0190172
0.00100301 1e-05 -0.0187132 0.00100436 1e-05 -0.0184093 0.00100547 1e-05 -0.0181054 0.00100659
1e-05 -0.0178015 0.00100771 1e-05 -0.0174976 0.00100883 1e-05 -0.0172058 0.00101006 1e-05
-0.016914 0.00101107 1e-05 -0.0166222 0.00101208 1e-05 -0.0163305 0.0010131 1e-05 -0.0160387
0.00101412 1e-05 -0.0157586 0.00101521 1e-05 -0.0154784 0.00101623 1e-05 -0.0151983 0.00101729
1e-05 -0.0149182 0.00101839 1e-05 -0.0146381 0.00101954 1e-05 -0.0143692 0.00102071 1e-05
-0.0141002 0.00102189 1e-05 -0.0138313 0.0010231 1e-05 -0.0135624 0.00102434 1e-05 -0.0132934
0.00102562 1e-05 -0.0132449 0.00102586 1e-05 -0.0131964 0.0010261 1e-05 -0.0131478 0.00102634
1e-05 -0.0130993 0.00102658 1e-05 -0.0130515 0.00102682 1e-05 -0.0128417 0.00102786 1e-05
-0.0126319 0.00102891 1e-05 -0.0124221 0.00102998 1e-05 -0.0122123 0.00103106 1e-05 -0.0120025
0.00103215 1e-05 -0.0117547 0.00103344 1e-05 -0.0115068 0.00103475 1e-05 -0.0112589 0.00103606
1e-05 -0.0110111 0.00103738 1e-05 -0.0107632 0.00103871 1e-05 -0.0105252 0.00103998 1e-05
-0.0102873 0.00104126 1e-05 -0.0100493 0.00104253 1e-05 -0.00981133 0.00104381 1e-05 -0.00957337
0.00104509 1e-05 -0.00934491 0.00104632 1e-05 -0.00911645 0.00104754 1e-05 -0.008888 0.00104877
1e-05 -0.00865954 0.00104999 1e-05 -0.00843108 0.00105121 1e-05 -0.00821175 0.00105238 1e-05
-0.00799242 0.00105354 1e-05 -0.00777309 0.00105471 1e-05 -0.00755376 0.00105587 1e-05 -0.00733443
0.00105703 1e-05 -0.00712387 0.00105813 1e-05 -0.0069133 0.00105924 1e-05 -0.00670273 0.00106034
1e-05 -0.00649216 0.00106144 1e-05 -0.0062816 0.00106254 1e-05 -0.00607944 0.00106358 1e-05
-0.00587729 0.00106463 1e-05 -0.00567514 0.00106567 1e-05 -0.00547298 0.00106672 1e-05 -0.00527083
0.00106776 1e-05 -0.00507675 0.00106875 1e-05 -0.00488267 0.00106975 1e-05 -0.0046886 0.00107074
1e-05 -0.00449452 0.00107173 1e-05 -0.00430044 0.00107273 1e-05 -0.00411412 0.00107367 1e-05
-0.0039278 0.00107463 1e-05 -0.00374147 0.00107558 1e-05 -0.00355515 0.00107653 1e-05 -0.00336883
0.00107749 1e-05 -0.00318995 0.0010784 1e-05 -0.00301107 0.00107933 1e-05 -0.00283219 0.00108025
1e-05 -0.00265331 0.00108118 1e-05 -0.00247443 0.00108212 1e-05 -0.0023027 0.00108302 1e-05
-0.00213097 0.00108394 1e-05 -0.00195924 0.00108487 1e-05 -0.00178751 0.0010858 1e-05 -0.00161577
0.00108675 1e-05 -0.0014509 0.00108766 1e-05 -0.00128603 0.00108859 1e-05 -0.00112116 0.00108954
1e-05 -0.00095629 0.00109052 1e-05 -0.000791418 0.00109152 1e-05 -0.000633135 0.00109251 1e-05
-0.000474851 0.00109352 1e-05 -0.000316568 0.00109456 1e-05 -0.000158285 0.00109564 1e-05 0
0.00109674 1e-05 0.000105677 0.00109749 1e-05 0.000211355 0.00109825 1e-05 0.000317032 0.00109901
1e-05 0.000422709 0.00109978 1e-05 0.000528387 0.00110056 1e-05 0.000634886 0.00110134 1e-05
0.000741385 0.00110211 1e-05 0.000847885 0.00110288 1e-05 0.000954384 0.00110363 1e-05 0.00106088
0.00110438 1e-05 0.00116821 0.00110512 1e-05 0.00127554 0.00110585 1e-05 0.00138286 0.00110656
1e-05 0.00149019 0.00110726 1e-05 0.00159752 0.00110794 1e-05 0.00170568 0.00110861 1e-05
0.00181384 0.00110926 1e-05 0.001922 0.0011099 1e-05 0.00203016 0.00111053 1e-05 0.00213833
0.00111113 1e-05 0.00224733 0.00111172 1e-05 0.00235633 0.00111231 1e-05 0.00246533 0.00111288
1e-05 0.00257434 0.00111343 1e-05 0.00268334 0.00111397 1e-05 0.00279319 0.00111449 1e-05
0.00290304 0.00111501 1e-05 0.00301289 0.00111551 1e-05 0.00312274 0.001116 1e-05 0.00323259
0.00111647 1e-05 0.00334329 0.00111693 1e-05 0.003454 0.00111738 1e-05 0.0035647 0.00111781
1e-05 0.0036754 0.00111824 1e-05 0.00378611 0.00111864 1e-05 0.00389767 0.00111903 1e-05
0.00400924 0.00111942 1e-05 0.0041208 0.00111979 1e-05 0.00423237 0.00112015 1e-05 0.00434393
0.00112049 1e-05 0.00445636 0.00112082 1e-05 0.00456879 0.00112114 1e-05 0.00468123 0.00112145
1e-05 0.00479366 0.00112175 1e-05 0.00490609 0.00112203 1e-05 0.0050194 0.00112229 1e-05
0.0051327 0.00112255 1e-05 0.00524601 0.0011228 1e-05 0.00535932 0.00112303 1e-05 0.00547262
0.00112325 1e-05 0.00558681 0.00112346 1e-05 0.005701 0.00112366 1e-05 0.00581518 0.00112384
1e-05 0.00592937 0.00112402 1e-05 0.00604356 0.00112418 1e-05 0.00615863 0.00112432 1e-05
0.00627371 0.00112446 1e-05 0.00638878 0.00112459 1e-05 0.00650386 0.00112471 1e-05 0.00661893
0.00112481 1e-05 0.0067349 0.0011249 1e-05 0.00685087 0.00112498 1e-05 0.00696684 0.00112505
1e-05 0.00708281 0.00112511 1e-05 0.00719878 0.00112516 1e-05 0.00731565 0.00112519 1e-05
0.00743252 0.00112522 1e-05 0.00754939 0.00112523 1e-05 0.00766626 0.00112524 1e-05 0.00778313
0.00112523 1e-05 0.00790091 0.0011252 1e-05 0.00801869 0.00112517 1e-05 0.00813647 0.00112513
1e-05 0.00825425 0.00112508 1e-05 0.00837203 0.00112502 1e-05 0.00840993 0.00112499 1e-05
0.00844783 0.00112497 1e-05 0.00848573 0.00112494 1e-05 0.00852362 0.00112491 1e-05 0.0085607
0.00112488 1e-05 0.00864166 0.00112482 1e-05 0.00872262 0.00112475 1e-05 0.00880359 0.00112468
1e-05 0.00888455 0.0011246 1e-05 0.00896551 0.00112452 1e-05 0.00908513 0.00112438 1e-05
0.00920475 0.00112424 1e-05 0.00932437 0.00112408 1e-05 0.00944398 0.00112392 1e-05 0.0095636
0.00112374 1e-05 0.00968415 0.00112355 1e-05 0.0098047 0.00112335 1e-05 0.00992525 0.00112314
1e-05 0.0100458 0.00112291 1e-05 0.0101663 0.00112268 1e-05 0.0102878 0.00112243 1e-05
0.0104093 0.00112217 1e-05 0.0105308 0.0011219 1e-05 0.0106523 0.00112161 1e-05 0.0107738
0.00112132 1e-05 0.0108962 0.00112101 1e-05 0.0110186 0.00112069 1e-05 0.0111411 0.00112036
1e-05 0.0112635 0.00112002 1e-05 0.0113859 0.00111966 1e-05 0.0115093 0.00111929 1e-05
0.0116327 0.00111891 1e-05 0.0117561 0.00111852 1e-05 0.0118795 0.00111811 1e-05 0.0120028
0.0011177 1e-05 0.0121272 0.00111726 1e-05 0.0122515 0.00111682 1e-05 0.0123759 0.00111636
1e-05 0.0125002 0.0011159 1e-05 0.0126245 0.00111542 1e-05 0.0127498 0.00111492 1e-05
0.0128752 0.00111441 1e-05 0.0130005 0.00111389 1e-05 0.0131258 0.00111336 1e-05 0.0132511
0.00111282 1e-05 0.0133774 0.00111226 1e-05 0.0135036 0.00111168 1e-05 0.0136299 0.0011111
1e-05 0.0137562 0.0011105 1e-05 0.0138825 0.00110989 1e-05 0.0140098 0.00110926 1e-05
0.014137 0.00110862 1e-05 0.0142643 0.00110797 1e-05 0.0143915 0.0011073 1e-05 0.0145188
0.00110662 1e-05 0.0146471 0.00110593 1e-05 0.0147753 0.00110522 1e-05 0.0149036 0.0011045
1e-05 0.0150318 0.00110376 1e-05 0.0151601 0.00110301 1e-05 0.0152893 0.00110225 1e-05
0.0154186 0.00110147 1e-05 0.0155478 0.00110067 1e-05 0.0156771 0.00109986 1e-05 0.0158063
0.00109904 1e-05 0.0159366 0.00109822 1e-05 0.0160668 0.00109736 1e-05 0.0161971 0.00109649
1e-05 0.0163273 0.00109561 1e-05 0.0164576 0.00109471 1e-05 0.0165889 0.00109382 1e-05
0.0167201 0.00109289 1e-05 0.0168514 0.00109194 1e-05 0.0169827 0.00109098 1e-05 0.0171139
0.00109001 1e-05 0.0172462 0.00108903 1e-05 0.0173785 0.00108803 1e-05 0.0175108 0.001087
1e-05 0.0176431 0.00108596 1e-05 0.0177754 0.00108491 1e-05 0.0179087 0.00108386 1e-05
0.018042 0.00108278 1e-05 0.0181753 0.00108167 1e-05 0.0183087 0.00108054 1e-05 0.018442
0.00107941 1e-05 0.0185763 0.00107828 1e-05 0.0187107 0.00107712 1e-05 0.018845 0.00107592
1e-05 0.0189794 0.00107471 1e-05 0.0191137 0.00107349 1e-05 0.0192491 0.00107228 1e-05
0.0193845 0.00107103 1e-05 0.0195199 0.00106974 1e-05 0.0196553 0.00106844 1e-05 0.0197907
0.00106714 1e-05 0.0199272 0.00106583 1e-05 0.0200636 0.00106449 1e-05 0.0202001 0.00106312
1e-05 0.0203365 0.00106172 1e-05 0.020473 0.00106033 1e-05 0.0206105 0.00105893 1e-05
0.020748 0.0010575 1e-05 0.0208855 0.00105603 1e-05 0.021023 0.00105454 1e-05 0.0211606
0.00105305 1e-05 0.0212991 0.00105156 1e-05 0.0214377 0.00105003 1e-05 0.0215763 0.00104846
1e-05 0.0217149 0.00104687 1e-05 0.0218535 0.00104529 1e-05 0.0219931 0.0010437 1e-05
0.0221328 0.00104207 1e-05 0.0222724 0.0010404 1e-05 0.0224121 0.00103871 1e-05 0.0225517
0.00103703 1e-05 0.0226925 0.00103534 1e-05 0.0228332 0.0010336 1e-05 0.022974 0.00103183
1e-05 0.0231147 0.00103004 1e-05 0.0232555 0.00102825 1e-05 0.0233973 0.00102644 1e-05
0.0235391 0.0010246 1e-05 0.023681 0.00102272 1e-05 0.0238228 0.00102081 1e-05 0.0239647
0.00101891 1e-05 0.0241076 0.00101699 1e-05 0.0242505 0.00101503 1e-05 0.0243935 0.00101303
1e-05 0.0245364 0.00101102 1e-05 0.0246794 0.001009 1e-05 0.0248234 0.00100696 1e-05
0.0249675 0.00100488 1e-05 0.0251115 0.00100276 1e-05 0.0252556 0.00100063 1e-05 0.0253996
0.000998481 1e-05 0.0255448 0.000996318 1e-05 0.02569 0.000994111 1e-05 0.0258351 0.000991873
1e-05 0.0259803 0.000989614 1e-05 0.0261255 0.000987341 1e-05 0.0262718 0.000985047 1e-05
0.0264181 0.000982709 1e-05 0.0265644 0.000980342 1e-05 0.0267107 0.000977953 1e-05 0.026857
0.000975545 1e-05 0.0270044 0.000973113 1e-05 0.0271519 0.000970637 1e-05 0.0272993 0.000968135
1e-05 0.0274467 0.000965609 1e-05 0.0275942 0.00096306 1e-05 0.0277428 0.000960484 1e-05
0.0278914 0.000957865 1e-05 0.0280399 0.00095522 1e-05 0.0281885 0.000952551 1e-05 0.0283371
0.000949857 1e-05 0.0284869 0.00094713 1e-05 0.0286366 0.000944362 1e-05 0.0287863 0.000941569
1e-05 0.0289361 0.000938749 1e-05 0.0290858 0.000935904 1e-05 0.0292367 0.000933019 1e-05
0.0293876 0.000930097 1e-05 0.0295385 0.000927148 1e-05 0.0296894 0.000924172 1e-05 0.0298403
0.000921169 1e-05 0.0299924 0.000918121 1e-05 0.0301445 0.000915038 1e-05 0.0302966 0.000911928
1e-05 0.0304486 0.000908789 1e-05 0.0306007 0.000905623 1e-05 0.030655 0.000904484 1e-05
0.0307092 0.000903341 1e-05 0.0307634 0.000902194 1e-05 0.0308176 0.000901044 1e-05 0.0308705
0.000899919 1e-05 0.0309698 0.000897799 1e-05 0.0310691 0.000895668 1e-05 0.0311684 0.000893524
1e-05 0.0312677 0.000891367 1e-05 0.031367 0.000889198 1e-05 0.0315215 0.000885809 1e-05
[...]
POINT_DATA 12065
FIELD attributes 4
age 1 12065 float
-9.99968e-06 -7.9997e-06 -5.99975e-06 -3.99981e-06 -1.99989e-06 0 2.96552e-05 5.93039e-05 8.89461e-05 0.000118582 0.000148211
0.000178558 0.000208897 0.000239222 0.000269534 0.000299831 0.0003289 0.00035796 0.000387009 0.000416047 0.000445073
0.000472927 0.000500777 0.000528619 0.000556455 0.000584285 0.000610998 0.000637706 0.000664412 0.000691114 0.000717813
0.000722631 0.000727449 0.000732267 0.000737084 0.000741832 0.000762657 0.000783481 0.000804305 0.000825128 0.00084595
0.000870551 0.000895152 0.000919755 0.000944359 0.000968964 0.000992587 0.00101621 0.00103984 0.00106347 0.0010871
0.0011098 0.00113249 0.00115519 0.00117789 0.0012006 0.0012224 0.0012442 0.00126601 0.00128783 0.00130965
0.0013306 0.00135155 0.00137251 0.00139348 0.00141445 0.00143459 0.00145472 0.00147487 0.00149502 0.00151517
0.00153453 0.00155389 0.00157325 0.00159262 0.00161199 0.0016306 0.00164921 0.00166782 0.00168644 0.00170506
0.00172295 0.00174084 0.00175873 0.00177662 0.00179453 0.00181173 0.00182892 0.00184612 0.00186332 0.00188053
0.00189707 0.0019136 0.00193013 0.00194667 0.00196321 0.0019791 0.00199499 0.00201087 0.00202676 0.00204264
0.00205326 0.00206387 0.00207448 0.00208508 0.00209569 0.00210639 0.00211708 0.00212776 0.00213845 0.00214914
0.00215992 0.0021707 0.00218147 0.00219224 0.00220301 0.00221389 0.00222475 0.00223561 0.00224647 0.00225734
0.0022683 0.00227925 0.00229021 0.00230117 0.00231213 0.00232319 0.00233425 0.0023453 0.00235636 0.00236742
0.00237859 0.00238974 0.0024009 0.00241207 0.00242323 0.00243451 0.00244577 0.00245704 0.00246831 0.00247959
0.00249098 0.00250235 0.00251374 0.00252512 0.00253652 0.00254802 0.00255952 0.00257102 0.00258253 0.00259405
0.00260567 0.00261729 0.00262892 0.00264056 0.0026522 0.00266396 0.00267571 0.00268747 0.00269924 0.00271101
0.0027229 0.00273479 0.00274669 0.00275859 0.00277051 0.00278254 0.00279457 0.00280661 0.00281866 0.00283072
0.00284289 0.00285507 0.00286726 0.00287946 0.00289167 0.00289561 0.00289954 0.00290348 0.00290742 0.00291127
0.00291969 0.00292811 0.00293654 0.00294497 0.00295342 0.0029659 0.0029784 0.0029909 0.00300342 0.00301596
0.00302862 0.00304128 0.00305396 0.00306665 0.00307935 0.00309219 0.00310503 0.00311788 0.00313075 0.00314363
0.00315665 0.00316967 0.0031827 0.00319574 0.00320881 0.00322202 0.00323522 0.00324844 0.00326167 0.00327492
0.00328832 0.00330171 0.00331512 0.00332855 0.00334199 0.00335559 0.00336918 0.00338278 0.0033964 0.00341004
0.00342384 0.00343763 0.00345143 0.00346525 0.00347909 0.0034931 0.00350709 0.00352109 0.00353512 0.00354917
0.00356338 0.00357758 0.0035918 0.00360603 0.00362029 0.00363472 0.00364914 0.00366356 0.00367801 0.00369249
0.00370713 0.00372176 0.00373641 0.00375107 0.00376577 0.00378063 0.00379548 0.00381034 0.00382522 0.00384014
0.00385523 0.0038703 0.00388539 0.00390049 0.00391563 0.00393094 0.00394624 0.00396155 0.00397687 0.00399224
0.00400777 0.00402331 0.00403884 0.00405439 0.00406999 0.00408575 0.00410151 0.00411727 0.00413306 0.00414888
0.00416487 0.00418087 0.00419686 0.00421288 0.00422894 0.00424516 0.00426139 0.00427762 0.00429387 0.00431017
0.00432662 0.00434308 0.00435955 0.00437604 0.00439257 0.00440926 0.00442596 0.00444267 0.0044594 0.00447617
0.0044931 0.00451004 0.00452699 0.00454396 0.00456096 0.00457814 0.00459532 0.00461251 0.00462972 0.00464697
0.00466439 0.00468181 0.00469925 0.00471671 0.0047342 0.00475186 0.00476954 0.00478723 0.00480494 0.00482268
0.00484058 0.00485851 0.00487645 0.00489441 0.0049124 0.00493056 0.00494873 0.00496693 0.00498514 0.00500338
0.0050218 0.00504023 0.00505868 0.00507715 0.00509565 0.00511432 0.00513301 0.00515172 0.00517045 0.00518921
0.00520814 0.00522709 0.00524607 0.00526507 0.00528409 0.00530328 0.0053225 0.00534174 0.00536101 0.0053803
0.00539976 0.00541925 0.00543876 0.0054583 0.00547786 0.00548484 0.00549183 0.00549882 0.00550581 0.00551264
0.00552545 0.00553828 0.00555112 0.00556397 0.00557683 0.00559684 0.00561689 0.00563696 0.00565705 0.00567718
0.00569748 0.00571781 0.00573817 0.00575856 0.00577897 0.00579956 0.00582019 0.00584084 0.00586152 0.00588224
0.00590313 0.00592405 0.00594501 0.00596599 0.00598701 0.00600821 0.00602944 0.0060507 0.006072 0.00609332
0.00611483 0.00613637 0.00615795 0.00617957 0.0062012 0.00622303 0.0062449 0.0062668 0.00628874 0.00631071
0.00633286 0.00635506 0.0063773 0.00639957 0.00642186 0.00644436 0.00646689 0.00648947 0.00651208 0.00653472
0.00655756 0.00658044 0.00660337 0.00662633 0.00664931 0.00667251 0.00669575 0.00671903 0.00674235 0.0067657
0.00678926 0.00681287 0.00683652 0.0068602 0.00688393 0.00690786 0.00693185 0.00695587 0.00697993 0.00700404
0.00702836 0.00705273 0.00707714 0.0071016 0.00712609 0.00715081 0.00717558 0.00720038 0.00722524 0.00725013
0.00727175 0.0072934 0.00731508 0.0073368 0.00735759 0.00736132 0.00736505 0.00736878 0.00737252 0.00737625
0.0074018 0.00742739 0.00745303 0.00747872 0.00750446 0.00753044 0.00755647 0.00758255 0.00760868 0.00763486
0.00766128 0.00768776 0.00771429 0.00774088 0.00776751 0.00779439 0.00782132 0.00784832 0.00787536 0.00790246
0.0079298 0.0079572 0.00798467 0.00801219 0.00803976 0.00806758 0.00809546 0.00812341 0.00815141 0.00817946
0.00820776 0.00823613 0.00826457 0.00829306 0.00832159 0.00835039 0.00837925 0.00840819 0.00843717 0.0084662
0.00849549 0.00852486 0.00855429 0.00858377 0.0086133 0.0086431 0.00867297 0.0087029 0.00873288 0.00876292
0.00879322 0.0088236 0.00885403 0.00888451 0.00891505 0.00894586 0.00897674 0.00900767 0.00903866 0.00906969
0.00908019 0.00909071 0.00910123 0.00911176 0.00912235 0.00914321 0.0091641 0.009185 0.00920593 0.00922689
0.00925871 0.00929059 0.00932252 0.0093545 0.00938653 0.00941884 0.00945122 0.00948364 0.00951611 0.00954863
0.00958143 0.00961428 0.00964719 0.00968014 0.00971313 0.00974641 0.00977974 0.00981311 0.00984653 0.00987998
0.00991372 0.0099475 0.00998134 0.0100152 0.0100491 0.0100833 0.0101175 0.0101518 0.0101861 0.0102204
0.010255 0.0102897 0.0103244 0.0103591 0.0103938 0.0104289 0.0104639 0.010499 0.0105341 0.0105693
0.0106047 0.0106401 0.0106756 0.0107111 0.0107466 0.0107824 0.0108182 0.010854 0.0108899 0.0109258
0.0109619 0.0109981 0.0110343 0.0110705 0.0111067 0.0111431 0.0111796 0.0112161 0.0112527 0.0112892
0.011326 0.0113628 0.0113996 0.0114364 0.0114733 0.0115104 0.0115475 0.0115846 0.0116217 0.0116588
0.0116962 0.0117336 0.011771 0.0118084 0.0118458 0.0118566 0.0118674 0.0118783 0.0118891 0.0118999
0.0119268 0.0119537 0.0119805 0.0120074 0.0120342 0.0120722 0.0121101 0.012148 0.012186 0.0122239
0.0122621 0.0123003 0.0123385 0.0123767 0.0124149 0.0124533 0.0124918 0.0125302 0.0125687 0.0126071
0.0126458 0.0126845 0.0127232 0.0127619 0.0128006 0.0128396 0.0128785 0.0129175 0.0129564 0.0129954
0.0130346 0.0130738 0.0131131 0.0131523 0.0131915 0.013231 0.0132704 0.0133099 0.0133494 0.0133889
0.0134286 0.0134684 0.0135082 0.0135479 0.0135877 0.0136277 0.0136678 0.0137078 0.0137479 0.0137879
0.0138283 0.0138687 0.013909 0.0139494 0.0139897 0.0140304 0.0140711 0.0141118 0.0141525 0.0141932
0.0142342 0.0142753 0.0143163 0.0143574 0.0143984 0.0144398 0.0144812 0.0145227 0.0145641 0.0146056
0.0146474 0.0146892 0.014731 0.0147729 0.0148148 0.0148405 0.0148663 0.0148921 0.014918 0.0149404
0.0149576 0.0149747 0.0149919 0.0150091 0.0150262 0.015069 0.0151117 0.0151544 0.0151972 0.0152401
0.0152833 0.0153266 0.0153699 0.0154132 0.0154566 0.0155004 0.0155442 0.015588 0.0156319 0.015676
0.0157204 0.0157648 0.0158093 0.0158538 0.0158985 0.0159436 0.0159887 0.0160339 0.0160791 0.0161245
0.0161511 0.0161777 0.0162043 0.0162309 0.0162548 0.0162747 0.0162946 0.0163146 0.0163345 0.0163545
0.0164011 0.0164478 0.0164946 0.0165415 0.0165886 0.0166361 0.0166837 0.0167314 0.0167792 0.0168273
0.0168758 0.0169244 0.0169731 0.017022 0.0170711 0.0170977 0.0171244 0.0171511 0.0171778 0.0172023
0.017226 0.0172496 0.0172733 0.0172971 0.0173209 0.0173717 0.0174226 0.0174737 0.017525 0.0175767
0.0176288 0.0176811 0.0177336 0.0177862 0.0178394 0.0178729 0.0179065 0.0179402 0.017974 0.0180049
0.0180259 0.0180469 0.018068 0.018089 0.0181102 0.0181655 0.018221 0.0182767 0.0183327 0.0183893
0.0184464 0.0185038 0.0185614 0.0186193 0.0186779 0.0186902 0.0187026 0.0187149 0.0187273 0.0187393
0.0187865 0.0188339 0.0188815 0.0189293 0.0189776 0.019039 0.0191008 0.0191629 0.0192254 0.0192888
0.01932 0.0193514 0.0193829 0.0194144 0.0194443 0.019478 0.0195117 0.0195456 0.0195796 0.0196139
0.0196808 0.019748 0.0198157 0.0198839 0.0199532 0.0199916 0.0200302 0.0200689 0.0201078 0.0201446
0.0201774 0.0202103 0.0202433 0.0202764 0.0203097 0.0203833 0.0204573 0.0205319 0.0206071 0.0206837
0.020719 0.0207543 0.0207898 0.0208254 0.0208598 0.0209032 0.0209468 0.0209905 0.0210345 0.021079
0.0211607 0.0212431 0.0213262 0.02141 0.0214954 0.0215178 0.0215402 0.0215627 0.0215852 0.0216074
0.0216724 0.0217378 0.0218036 0.0218699 0.0219371 0.0220287 0.0221211 0.0222143 0.0223084 0.0224043
0.0224046 0.0224048 0.0224051 0.0224054 0.0224056 0.0225025 0.0226003 0.0226989 0.0227986 0.0228998
0.0229742 0.0230491 0.0231245 0.0232005 0.0232751 0.023305 0.0233351 0.0233652 0.0233954 0.0234257
0.0235347 0.0236447 0.0237559 0.0238681 0.0239818 0.0240191 0.0240565 0.024094 0.0241316 0.0241693
0.0242487 0.0243286 0.024409 0.02449 0.0245714 0.0246808 0.0247913 0.0249026 0.0250149 0.0251292
0.0251419 0.0251545 0.0251672 0.0251798 0.0251925 0.0253209 0.0254504 0.025581 0.0257129 0.0258451
0.0259105 0.0259762 0.0260422 0.0261084 0.0261763 0.0262464 0.0263169 0.0263877 0.0264587 0.0265297
0.0266703 0.0268119 0.0269547 0.0270985 0.0272418 0.0272608 0.0272798 0.0272989 0.0273179 0.0273372
0.0274647 0.0275929 0.0277219 0.0278516 0.0279805 0.0281103 0.0282408 0.0283719 0.0285036 0.0286476
0.0286664 0.0286852 0.0287041 0.0287229 0.0287417 0.0288968 0.0290525 0.029209 0.0293661 0.0295216
0.0296462 0.0297711 0.0298963 0.0300219 0.0301614 0.0301924 0.0302235 0.0302546 0.0302857 0.0303167
0.0304775 0.0306388 0.0308004 0.0309623 0.0311223 0.0312841 0.0314462 0.0316084 0.0317708 0.031935
0.0319403 0.0319457 0.031951 0.0319563 0.0319617 0.0321199 0.0322781 0.0324364 0.0325946 0.0327512
0.032915 0.0330788 0.0332424 0.0334059 0.0335677 0.0336898 0.0338118 0.0339338 0.0340555 0.0341955
0.0342328 0.0342701 0.0343073 0.0343446 0.0343818 0.0345447 0.0347072 0.0348695 0.0350314 0.0351919
0.0353537 0.0355152 0.0356763 0.0358369 0.0359962 0.0361568 0.0363169 0.0364766 0.0366358 0.0367938
0.0368654 0.0369369 0.0370083 0.0370796 0.0371576 0.037243 0.0373284 0.0374135 0.0374985 0.0375833
0.0377408 0.0378978 0.0380543 0.0382103 0.0383653 0.0385212 0.0386766 0.0388315 0.0389858 0.0391393
0.0392936 0.0394473 0.0396006 0.0397533 0.0399052 0.0400579 0.04021 0.0403617 0.0405129 0.0406632
0.0408144 0.0409651 0.0411152 0.0412649 0.0414138 0.0414469 0.0414799 0.0415129 0.0415459 0.0415804
0.0416962 0.0418118 0.0419271 0.0420421 0.0421567 0.042305 0.0424528 0.0426001 0.0427469 0.0428932
0.0430401 0.0431866 0.0433326 0.0434782 0.0436232 0.043769 0.0439142 0.0440591 0.0442034 0.0443473
0.0444919 0.0446361 0.0447798 0.0449231 0.0450659 0.0452095 0.0453526 0.0454953 0.0456376 0.0457795
0.0459221 0.0460643 0.0462061 0.0463475 0.0464884 0.0466302 0.0467715 0.0469125 0.0470531 0.0471933
0.0473342 0.0474748 0.047615 0.0477549 0.0478943 0.0480346 0.0481745 0.0483141 0.0484533 0.0485922
0.0487318 0.0488711 0.0490101 0.0491488 0.0492871 0.0494262 0.049565 0.0497035 0.0498417 0.0499796
0.0500945 0.0502093 0.0503239 0.0504382 0.0505759 0.0505947 0.0506135 0.0506323 0.0506511 0.0506699
0.0508082 0.0509462 0.051084 0.0512215 0.0513588 0.0514968 0.0516346 0.0517722 0.0519095 0.0520466
0.0521845 0.0523222 0.0524596 0.0525969 0.0527339 0.0528718 0.0530095 0.0531469 0.0532842 0.0534213
0.0535593 0.053697 0.0538346 0.0539721 0.0541093 0.0542474 0.0543853 0.0545231 0.0546607 0.0547981
0.0549364 0.0550745 0.0552123 0.0553497 0.0554868 0.0556193 0.0557513 0.0558829 0.0560141 0.056145
0.0562803 0.0564148 0.0565487 0.0566819 0.0568146 0.0569517 0.057088 0.0572235 0.0573583 0.0574927
0.0576316 0.0577697 0.0579071 0.0580438 0.05818 0.0583209 0.0584609 0.0586003 0.0587389 0.058877
0.0590197 0.0591616 0.0593028 0.0594432 0.059583 0.0597275 0.0598712 0.0600141 0.0601562 0.0602977
0.060444 0.0605894 0.060734 0.0608779 0.061021 0.061169 0.0613161 0.0614624 0.0616079 0.0617527
0.0619023 0.0620511 0.062199 0.0623461 0.0624924 0.0626436 0.0627939 0.0629433 0.0630919 0.0632397
0.0633924 0.0635442 0.0636951 0.0638452 0.0639944 0.0641485 0.0643017 0.064454 0.0646053 0.0647558
0.0647931 0.0648303 0.0648675 0.0649046 0.0649434 0.0650604 0.0651767 0.0652926 0.0654079 0.0655227
0.0656794 0.065835 0.0659897 0.0661434 0.0662962 0.066454 0.0666107 0.0667664 0.0669211 0.0670749
0.0672337 0.0673913 0.0675479 0.0677034 0.067858 0.0680176 0.0681761 0.0683334 0.0684896 0.0686448
0.0688051 0.0689642 0.069122 0.0692788 0.0694345 0.0695954 0.0697549 0.0699132 0.0700703 0.0702264
0.0703875 0.0705472 0.0707056 0.0708628 0.071019 0.0711803 0.0713403 0.0714989 0.0716562 0.0718124
0.0719733 0.0721325 0.0722901 0.0724465 0.0726023 0.0727635 0.0729235 0.0730824 0.0732395 0.0733945
0.0735531 0.073709 0.0738623 0.0740145 0.0741668 -9.99997e-06 -7.99997e-06 -5.99998e-06 -3.99998e-06 -1.99999e-06
0 2.96566e-05 5.93127e-05 8.89678e-05 0.000118621 0.000148273 0.000178657 0.000209038 0.000239416 0.00026979
0.00030016 0.000329311 0.000358457 0.000387598 0.000416735 0.000445867 0.000473829 0.000501786 0.000529739 0.000557687
0.000585631 0.000612453 0.000639271 0.000666085 0.000692895 0.000719701 0.000745432 0.000771158 0.000796881 0.0008226
0.000848316 0.000873 0.00089768 0.000922357 0.00094703 0.0009717 0.000995381 0.00101906 0.00104273 0.0010664
0.00109007 0.00111279 0.00113551 0.00115822 0.00118094 0.00120364 0.00122544 0.00124724 0.00126903 0.00129083
0.00131261 0.00133353 0.00135444 0.00137536 0.00139627 0.00141717 0.00143724 0.00145731 0.00147738 0.00149744
0.0015175 0.00153676 0.00155602 0.00157527 0.00159453 0.00161378 0.00163226 0.00165074 0.00166921 0.00168769
0.00170616 0.00172389 0.00174163 0.00175936 0.00177708 0.00179481 0.00181183 0.00182884 0.00184586 0.00186287
0.00187988 0.00189621 0.00191253 0.00192886 0.00194518 0.0019615 0.00197717 0.00199284 0.0020085 0.00202416
0.00203982 0.00205028 0.00206073 0.00207118 0.00208163 0.00209208 0.00210262 0.00211315 0.00212367 0.0021342
0.00214473 0.00215534 0.00216595 0.00217655 0.00218716 0.00219776 0.00220845 0.00221913 0.00222982 0.0022405
0.00225118 0.00226195 0.00227271 0.00228348 0.00229424 0.002305 0.00231585 0.00232669 0.00233753 0.00234837
0.00235922 0.00237014 0.00238107 0.00239199 0.00240291 0.00241384 0.00242485 0.00243585 0.00244686 0.00245786
0.00246887 0.00247996 0.00249105 0.00250214 0.00251323 0.00252431 0.00253549 0.00254666 0.00255784 0.00256901
0.00258018 0.00259144 0.0026027 0.00261396 0.00262521 0.00263647 0.00264781 0.00265916 0.0026705 0.00268185
0.00269319 0.00270462 0.00271605 0.00272748 0.00273891 0.00275034 0.00276186 0.00277338 0.0027849 0.00279641
0.00280793 0.00281954 0.00283114 0.00284275 0.00285436 0.00286596 0.00287766 0.00288935 0.00290105 0.00291274
0.00292444 0.00293622 0.00294801 0.00295979 0.00297158 0.00298336 0.00299524 0.00300712 0.00301899 0.00303087
0.00304274 0.00305471 0.00306668 0.00307864 0.00309061 0.00310258 0.00311463 0.00312669 0.00313875 0.00315081
0.00316287 0.00317502 0.00318717 0.00319932 0.00321147 0.00322362 0.00323587 0.00324811 0.00326036 0.0032726
0.00328485 0.00329719 0.00330953 0.00332186 0.0033342 0.00334654 0.00335897 0.00337141 0.00338384 0.00339627
0.0034087 0.00342123 0.00343376 0.00344629 0.00345882 0.00347135 0.00348397 0.00349659 0.00350922 0.00352184
0.00353447 0.00354719 0.00355991 0.00357263 0.00358535 0.00359807 0.00361089 0.00362371 0.00363653 0.00364934
0.00366216 0.00367508 0.003688 0.00370091 0.00371383 0.00372674 0.00373901 0.00375127 0.00376353 0.00377579
0.0037879 0.00378868 0.00378947 0.00379025 0.00379104 0.00379182 0.00380494 0.00381805 0.00383117 0.00384428
0.0038574 0.00387061 0.00388383 0.00389704 0.00391026 0.00392347 0.00393679 0.00395011 0.00396343 0.00397674
0.00399006 0.00400348 0.0040169 0.00403032 0.00404374 0.00405715 0.00407068 0.0040842 0.00409772 0.00411124
0.00412477 0.00413839 0.00415202 0.00416565 0.00417927 0.0041929 0.00420663 0.00422036 0.00423409 0.00424783
0.00426156 0.0042754 0.00428923 0.00430307 0.00431691 0.00433075 0.00434469 0.00435864 0.00437258 0.00438653
0.00440047 0.00441453 0.00442858 0.00444263 0.00445669 0.00447074 0.0044849 0.00449907 0.00451323 0.00452739
0.00454156 0.00455583 0.00457011 0.00458438 0.00459865 0.00461293 0.00462732 0.0046417 0.00465609 0.00467047
0.00468486 0.00469937 0.00471387 0.00472836 0.00474286 0.00475737 0.00477198 0.0047866 0.00480121 0.00481583
0.00483045 0.00484518 0.00485991 0.00487464 0.00488938 0.00490411 0.00491896 0.00493382 0.00494866 0.00496351
0.00497837 0.00499334 0.00500831 0.00502328 0.00503825 0.00505323 0.00506832 0.00508342 0.00509851 0.0051136
0.0051287 0.00514392 0.00515913 0.00517435 0.00518957 0.00520479 0.00522013 0.00523548 0.00525082 0.00526616
0.00528151 0.00529698 0.00531245 0.00532793 0.0053434 0.00535888 0.00537448 0.00539008 0.00540568 0.00542129
0.00543689 0.00545263 0.00546836 0.0054841 0.00549984 0.00551558 0.00553145 0.00554732 0.0055632 0.00557907
0.00559495 0.00560906 0.00562317 0.00563728 0.0056514 0.00566524 0.0056672 0.00566915 0.00567111 0.00567306
0.00567502 0.00569117 0.00570732 0.00572348 0.00573963 0.0057558 0.0057721 0.0057884 0.0058047 0.005821
0.00583731 0.00585377 0.00587022 0.00588667 0.00590312 0.00591959 0.0059362 0.0059528 0.00596941 0.00598602
0.00600263 0.00601941 0.00603617 0.00605294 0.0060697 0.00608648 0.00610344 0.00612036 0.00613729 0.00615422
0.00617117 0.0061883 0.0062054 0.00622249 0.00623959 0.00625672 0.00627403 0.00629131 0.00630858 0.00632585
0.00634316 0.00636066 0.00637812 0.00639557 0.00641303 0.00643053 0.00644821 0.00646587 0.00648351 0.00650116
0.00651886 0.00653674 0.0065546 0.00657244 0.00659029 0.00660819 0.00662628 0.00664435 0.00666239 0.00668045
0.00669856 0.00671686 0.00673514 0.0067534 0.00677168 0.00679 0.00680852 0.00682702 0.00684552 0.00686403
0.00688258 0.00690132 0.00692005 0.00693878 0.00695753 0.00697631 0.00699529 0.00701426 0.00703323 0.00705223
0.00707125 0.00709048 0.00710969 0.00712892 0.00714817 0.00716745 0.00718692 0.00720639 0.00722588 0.0072454
0.00726494 0.00728467 0.00730441 0.00732417 0.00734396 0.00736377 0.00738095 0.00739813 0.00741534 0.00743256
0.00744993 0.00745275 0.00745556 0.00745837 0.00746119 0.007464 0.00748428 0.00750458 0.00752491 0.00754526
0.00756564 0.00758621 0.00760681 0.00762743 0.00764808 0.00766876 0.00768964 0.00771053 0.00773146 0.00775241
0.00777339 0.00779458 0.00781578 0.00783702 0.00785828 0.00787957 0.00790108 0.0079226 0.00794415 0.00796573
0.00798735 0.00800918 0.00803103 0.0080529 0.0080748 0.00809674 0.0081189 0.00814108 0.00816328 0.00818551
0.00820778 0.00823028 0.00825279 0.00827532 0.00829789 0.00832049 0.00834332 0.00836617 0.00838904 0.00841195
0.00843489 0.00845806 0.00848125 0.00850447 0.00852771 0.008551 0.00857451 0.00859804 0.00862159 0.00864518
0.00866881 0.00869266 0.00871654 0.00874044 0.00876436 0.00878833 0.00881253 0.00883675 0.00886099 0.00888526
0.00890957 0.0089341 0.00895866 0.00898325 0.00900786 0.00903251 0.00905738 0.00908228 0.00910721 0.00913216
0.00915714 0.00918235 0.00920759 0.00923285 0.00925814 0.00928345 0.009309 0.00933457 0.00936016 0.00938578
0.00941143 0.0094373 0.0094632 0.00948912 0.00951507 0.00954104 0.00956724 0.00959346 0.00961971 0.00964598
0.00967227 0.00967791 0.00968354 0.00968917 0.00969481 0.00970036 0.00972128 0.00974222 0.00976318 0.00978415
0.00980513 0.00983198 0.00985884 0.00988573 0.00991264 0.00993957 0.00996673 0.00999392 0.0100211 0.0100483
0.0100756 0.0101031 0.0101306 0.0101581 0.0101856 0.0102132 0.010241 0.0102688 0.0102966 0.0103245
0.0103524 0.0103805 0.0104086 0.0104368 0.0104649 0.0104931 0.0105216 0.01055 0.0105785 0.010607