/*--------------------------------*- C++ -*----------------------------------*\
  =========                 |
  \\      /  F ield         | OpenFOAM: The Open Source CFD Toolbox
   \\    /   O peration     | Website:  https://openfoam.org
    \\  /    A nd           | Version:  13
     \\/     M anipulation  |
\*---------------------------------------------------------------------------*/
FoamFile
{
    format      ascii;
    class       volScalarField;
    location    "285";
    object      epsilon;
}
// * * * * * * * * * * * * * * * * * * * * * * * * * * * * * * * * * * * * * //

dimensions      [0 2 -3 0 0 0 0];

internalField   nonuniform List<scalar> 
12225
(
285.364
271.154
258.873
245.014
233.921
224.577
218.408
214.127
214.116
215.231
218.38
221.88
229.067
233.363
242.307
246.379
257.853
264.276
52.6013
92.9053
108.375
116.198
126.205
138.03
153.752
170.809
191.76
211.493
235.487
255.717
280.963
299.304
324.364
338.994
363.995
372.791
20.3187
35.2633
45.3012
51.1821
56.1314
60.3558
65.3893
70.3585
76.961
83.8091
91.9698
99.8521
108.593
117.359
125.85
135.562
142.762
153.839
15.3256
19.7695
24.2926
27.828
30.8011
33.2095
35.5064
37.6644
39.8657
42.2883
44.6878
47.5561
50.0136
53.3646
55.7196
59.5219
61.7047
65.8891
14.6399
15.8783
17.4111
19.1596
20.753
22.1683
23.4039
24.6063
25.6259
26.786
27.7153
28.9539
29.8266
31.1783
32.0042
33.4497
34.2602
35.8203
14.7043
14.8793
15.2108
15.8922
16.6067
17.3426
17.9908
18.663
19.2057
19.8281
20.2922
20.902
21.3144
21.93
22.3069
22.9336
23.2873
23.9651
14.7413
14.6205
14.6265
14.743
14.9422
15.239
15.5175
15.842
16.1096
16.4266
16.6664
16.9722
17.1859
17.4844
17.6751
17.9727
18.1427
18.4684
14.7625
14.5864
14.4642
14.3819
14.3709
14.3956
14.4467
14.5463
14.6341
14.7556
14.8526
14.9809
15.0743
15.205
15.2913
15.4238
15.5027
15.6539
14.7667
14.5906
14.4347
14.2963
14.1856
14.1061
14.0421
14.0108
13.9865
13.9862
13.9894
14.002
14.0154
14.0427
14.0612
14.095
14.1195
14.1632
14.7663
14.5939
14.432
14.282
14.1429
14.0223
13.912
13.8205
13.7385
13.6722
13.6132
13.5671
13.5226
13.4924
13.4576
13.4407
13.4095
13.4091
14.7658
14.5945
14.4321
14.2803
14.1361
14.0033
13.8782
13.7646
13.6585
13.5635
13.4744
13.3964
13.3213
13.2579
13.1937
13.1433
13.0866
13.0484
14.7657
14.5943
14.4321
14.2798
14.1353
13.9999
13.8715
13.7519
13.6385
13.5338
13.4343
13.3433
13.2561
13.1777
13.101
13.0337
12.9657
12.9086
14.7657
14.5941
14.432
14.2794
14.1349
13.9989
13.8698
13.7485
13.6332
13.525
13.422
13.3258
13.2339
13.1485
13.0665
12.9909
12.9175
12.8506
14.7657
14.5939
14.4318
14.279
14.1346
13.9983
13.8691
13.7472
13.6315
13.5223
13.4184
13.3204
13.227
13.139
13.055
12.9759
12.9003
12.8292
14.7657
14.5938
14.4317
14.2787
14.1342
13.9977
13.8686
13.7464
13.6307
13.5211
13.4171
13.3185
13.2248
13.136
13.0516
12.9714
12.8951
12.8227
14.7657
14.5937
14.4315
14.2785
14.1339
13.9973
13.8681
13.7458
13.63
13.5202
13.4161
13.3174
13.2236
13.1346
13.05
12.9696
12.8931
12.8204
14.7657
14.5937
14.4315
14.2783
14.1337
13.997
13.8677
13.7453
13.6294
13.5195
13.4154
13.3165
13.2227
13.1336
13.0489
12.9684
12.8918
12.819
14.7657
14.5937
14.4314
14.2782
14.1335
13.9968
13.8674
13.7449
13.629
13.5191
13.4148
13.3159
13.222
13.1328
13.0481
12.9675
12.8908
12.8179
14.7657
14.5937
14.4314
14.2782
14.1335
13.9967
13.8673
13.7448
13.6288
13.5189
13.4146
13.3156
13.2217
13.1325
13.0477
12.967
12.8904
12.8174
14.7657
14.5937
14.4314
14.2782
14.1336
13.9968
13.8674
13.745
13.629
13.519
13.4148
13.3158
13.2219
13.1327
13.0479
12.9673
12.8906
12.8177
14.7657
14.5937
14.4315
14.2784
14.1337
13.997
13.8677
13.7453
13.6294
13.5195
13.4154
13.3166
13.2229
13.1338
13.0493
12.9689
12.8926
12.82
14.7657
14.5937
14.4316
14.2785
14.1341
13.9974
13.8685
13.7464
13.6312
13.522
13.4191
13.3214
13.2294
13.1419
13.0596
12.9812
12.9076
12.8371
14.7658
14.5937
14.4318
14.2788
14.1353
14.0002
13.8743
13.7561
13.6466
13.5439
13.449
13.3598
13.2779
13.2003
13.1295
13.0616
13.0005
12.9405
14.7654
14.5929
14.4326
14.2846
14.1517
14.0327
13.9301
13.839
13.7615
13.6922
13.6342
13.5811
13.5377
13.496
13.4636
13.4298
13.4062
13.3772
14.7585
14.5934
14.4604
14.3619
14.3051
14.2824
14.2874
14.3009
14.3323
14.3664
14.4111
14.4513
14.5008
14.5414
14.5929
14.6309
14.6846
14.7176
14.7176
14.693
14.759
14.929
15.2013
15.4868
15.7791
16.0484
16.3128
16.5476
16.7827
16.9875
17.2015
17.3832
17.5846
17.7482
17.9443
18.092
14.7328
15.53
16.5861
17.7461
18.7831
19.6583
20.4354
21.1008
21.7267
22.2761
22.8303
23.3232
23.8529
24.3175
24.8458
25.2953
25.8372
26.2774
15.9831
21.1023
25.2136
27.98
30.0187
31.5947
33.0106
34.2899
35.5869
36.8404
38.1942
39.5117
40.9707
42.351
43.9165
45.3671
47.0709
48.5414
29.9662
47.5346
55.2899
59.1144
62.0562
64.8482
67.9674
71.3376
75.0714
79.0205
83.2683
87.6054
92.1467
96.6728
101.308
105.815
110.355
114.742
165.743
160.168
155.117
149.876
144.892
140.133
136.096
132.611
129.774
127.472
125.808
124.519
123.8
123.27
123.26
123.382
123.663
124.202
0.158192
0.204348
0.382707
0.542525
0.699631
0.877215
1.08408
1.33022
1.6202
1.95199
2.3192
2.71389
3.12848
3.55649
3.99259
4.43236
4.87209
5.30844
5.73839
6.15901
6.56747
6.96097
7.33681
7.69239
8.02528
8.33319
8.61412
8.86612
9.08744
39.2023
40.1495
40.8198
41.2884
41.8289
41.8806
41.6309
41.3069
40.6558
9.33381
9.16744
8.84673
40.2502
42.2065
45.9608
48.7946
52.4415
55.9437
59.7783
63.6984
67.8339
72.1176
76.5895
81.2317
86.059
91.0675
96.2648
101.651
107.231
113.006
118.979
125.153
131.529
138.108
144.893
151.882
159.078
166.478
174.084
181.891
189.901
198.108
206.512
215.107
223.89
232.854
241.997
251.308
260.785
270.415
280.196
290.112
300.16
310.325
320.599
330.966
341.418
351.938
362.513
373.125
383.759
394.395
405.008
415.575
426.071
436.468
446.745
456.89
466.923
476.929
486.75
496.45
505.985
515.357
524.542
533.527
542.297
550.835
559.128
567.16
574.919
582.389
589.558
596.412
602.94
609.128
614.968
620.446
625.556
630.287
634.633
638.584
642.135
645.276
648.005
650.317
652.21
653.676
654.708
655.377
655.641
655.42
654.72
653.583
652.132
650.33
648.055
645.404
642.366
638.955
635.18
631.051
626.581
621.782
616.662
611.234
605.513
599.513
593.247
586.73
579.978
573.007
565.831
558.468
550.931
543.24
535.409
527.457
519.398
511.255
503.048
494.815
486.637
479.067
474.44
471.175
468.001
464.805
461.578
458.323
455.046
451.753
448.443
445.114
441.748
438.31
434.724
430.827
426.184
419.933
395.051
0.814808
0.506871
0.517058
0.589051
0.698202
0.839327
1.01453
1.22579
1.47304
1.75365
2.06331
2.39709
2.75038
3.11918
3.50024
3.89106
4.28985
4.69565
5.10874
5.53127
5.96826
6.42934
6.93127
7.50257
8.19056
9.07362
10.2818
12.0346
14.7079
18.961
19.8015
20.227
20.5053
20.635
20.5138
20.1072
19.5533
18.7789
17.2648
19.9131
22.1442
26.289
27.4407
29.1802
30.8043
32.5659
34.3556
36.2258
38.1511
40.1475
42.2087
44.3404
46.5417
48.815
51.1608
53.5805
56.0747
58.6442
61.2896
64.0115
66.8101
69.6857
72.6382
75.6677
78.7736
81.9557
85.2133
88.5456
91.9515
95.4301
98.9797
102.599
106.286
110.039
113.855
117.732
121.667
125.659
129.702
133.795
137.933
142.112
146.329
150.579
154.857
159.158
163.477
167.807
172.143
176.477
180.803
185.112
189.397
193.652
197.873
202.061
206.225
210.393
214.627
218.788
222.903
226.956
230.944
234.861
238.702
242.458
246.126
249.699
253.171
256.538
259.792
262.93
265.946
268.834
271.591
274.212
276.692
279.028
281.215
283.251
285.133
286.856
288.418
289.816
291.05
292.117
293.017
293.748
294.318
294.714
294.924
294.954
294.817
294.536
294.101
293.486
292.713
291.779
290.689
289.447
288.054
286.516
284.836
283.018
281.067
278.988
276.785
274.464
272.03
269.49
266.848
264.11
261.283
258.373
255.386
252.329
249.207
246.029
242.801
239.532
236.237
232.947
229.801
227.214
224.949
222.747
220.552
218.353
216.151
213.948
211.748
209.554
207.368
205.193
203.027
200.875
198.722
196.623
194.544
191.127
1.75182
0.904338
0.818439
0.856415
0.947756
1.07969
1.24931
1.45547
1.69627
1.96845
2.26786
2.59016
2.93146
3.28862
3.65932
4.04206
4.43618
4.84124
5.25831
5.6903
6.14286
6.62564
7.15282
7.74545
8.43255
9.2502
10.235
11.4067
12.7265
14.0108
14.7405
15.3147
15.8329
16.3131
16.7663
17.232
17.7803
18.4839
19.4716
21.0046
22.5372
24.1088
25.3875
26.7595
28.1655
29.6328
31.1498
32.7209
34.3444
36.0223
37.7546
39.5424
41.3862
43.2867
45.2443
47.2598
49.3334
51.4658
53.6571
55.9077
58.2178
60.5873
63.0162
65.5043
68.0514
70.6572
73.3211
76.0426
78.8208
81.655
84.5441
87.487
90.4822
93.5284
96.6238
99.7667
102.955
106.187
109.459
112.77
116.117
119.496
122.905
126.34
129.798
133.276
136.768
140.271
143.781
147.294
150.805
154.311
157.807
161.293
164.765
168.227
171.68
175.13
178.567
181.963
185.318
188.626
191.882
195.08
198.216
201.285
204.282
207.202
210.04
212.793
215.455
218.021
220.489
222.853
225.11
227.256
229.288
231.202
232.996
234.666
236.209
237.623
238.907
240.057
241.073
241.953
242.697
243.304
243.773
244.101
244.275
244.314
244.22
243.996
243.641
243.148
242.523
241.767
240.883
239.874
238.743
237.493
236.126
234.648
233.06
231.368
229.575
227.685
225.704
223.635
221.483
219.253
216.95
214.579
212.145
209.653
207.109
204.518
201.886
199.22
196.531
193.84
191.211
188.776
186.482
184.236
182.006
179.783
177.565
175.356
173.158
170.975
168.812
166.673
164.566
162.508
160.514
158.671
157.022
155.414
2.82596
1.35262
1.16035
1.1652
1.24733
1.3783
1.54959
1.75749
1.99906
2.27092
2.56931
2.89046
3.23104
3.58842
3.96071
4.34674
4.74593
5.15891
5.58681
6.03159
6.49633
6.98552
7.5064
8.06866
8.68386
9.36346
10.114
10.9287
11.7774
12.6032
13.3539
14.0851
14.8242
15.5824
16.3715
17.2106
18.1242
19.1362
20.2645
21.5033
22.7906
24.0832
25.3617
26.6807
28.0429
29.4539
30.9135
32.4227
33.982
35.5923
37.2543
38.9686
40.736
42.5571
44.4326
46.363
48.3486
50.3901
52.4879
54.6422
56.8535
59.1219
61.4475
63.8304
66.2706
68.7679
71.322
73.9326
76.5992
79.321
82.0974
84.9273
87.8098
90.7434
93.7269
96.7586
99.8367
102.959
106.124
109.329
112.572
115.849
119.158
122.496
125.86
129.246
132.65
136.07
139.5
142.939
146.381
149.824
153.264
156.698
160.125
163.543
166.951
170.343
173.709
177.038
180.327
183.569
186.759
189.893
192.964
195.969
198.902
201.758
204.532
207.22
209.818
212.32
214.723
217.022
219.213
221.294
223.26
225.108
226.836
228.439
229.917
231.265
232.483
233.568
234.519
235.334
236.014
236.557
236.964
237.225
237.333
237.325
237.176
236.896
236.484
235.938
235.262
234.457
233.528
232.475
231.303
230.014
228.613
227.102
225.485
223.767
221.952
220.044
218.048
215.967
213.808
211.574
209.271
206.904
204.477
201.997
199.467
196.894
194.283
191.642
188.979
186.312
183.675
181.127
178.655
176.22
173.805
171.402
169.011
166.635
164.278
161.943
159.636
157.365
155.14
152.977
150.907
149.015
147.347
145.897
3.90534
1.81051
1.50816
1.47955
1.54937
1.6767
1.84751
2.05566
2.29721
2.56865
2.86654
3.18756
3.52881
3.88802
4.26359
4.65461
5.06079
5.48242
5.92023
6.37543
6.84975
7.34562
7.86634
8.41617
9
9.62273
10.2875
10.9932
11.7317
12.4912
13.2661
14.0659
14.8975
15.7641
16.6689
17.6165
18.6133
19.6661
20.7777
21.9431
23.1489
24.3956
25.6744
26.9954
28.3613
29.7745
31.2364
32.748
34.3103
35.9243
37.5908
39.3109
41.0853
42.9152
44.8016
46.7448
48.7456
50.8045
52.9224
55.0997
57.3371
59.6351
61.9941
64.4143
66.8961
69.4395
72.0446
74.7113
77.4392
80.2279
83.0769
85.9854
88.9526
91.9773
95.0582
98.1938
101.382
104.622
107.911
111.246
114.626
118.047
121.506
125.001
128.528
132.083
135.662
139.262
142.88
146.51
150.149
153.794
157.439
161.081
164.716
168.339
171.944
175.526
179.076
182.589
186.058
189.478
192.842
196.145
199.382
202.546
205.633
208.636
211.551
214.372
217.095
219.714
222.226
224.625
226.907
229.069
231.106
233.016
234.795
236.44
237.948
239.317
240.545
241.63
242.57
243.365
244.014
244.516
244.87
245.061
245.111
245.023
244.788
244.411
243.893
243.234
242.438
241.506
240.442
239.249
237.931
236.492
234.934
233.264
231.483
229.598
227.613
225.533
223.362
221.106
218.77
216.359
213.879
211.334
208.73
206.074
203.369
200.623
197.841
195.03
192.199
189.36
186.538
183.761
181.029
178.328
175.647
172.984
170.34
167.716
165.119
162.552
160.023
157.54
155.117
152.777
150.551
148.514
146.701
145.077
4.93518
2.25456
1.84329
1.78097
1.83652
1.9579
2.12587
2.33199
2.57138
2.84036
3.13564
3.4543
3.79378
4.1521
4.52788
4.92034
5.32927
5.75491
6.19792
6.65929
7.14033
7.64274
8.16853
8.72016
9.30033
9.91187
10.5572
11.2377
11.9527
12.7008
13.4821
14.2992
15.1541
16.048
16.982
17.9573
18.9755
20.0391
21.1496
22.3069
23.5094
24.7567
26.0482
27.3859
28.7714
30.2065
31.6925
33.2307
34.8225
36.4691
38.1716
39.9313
41.7492
43.6265
45.5641
47.5633
49.6254
51.7516
53.9427
56.1999
58.5241
60.916
63.3765
65.9062
68.5056
71.1752
73.9153
76.7259
79.6071
82.5586
85.5801
88.6709
91.8301
95.0569
98.3498
101.707
105.128
108.609
112.149
115.745
119.394
123.094
126.84
130.63
134.459
138.324
142.221
146.144
150.09
154.054
158.031
162.015
166.003
169.988
173.965
177.927
181.869
185.782
189.661
193.497
197.286
201.019
204.69
208.293
211.822
215.269
218.629
221.896
225.063
228.125
231.076
233.911
236.625
239.212
241.668
243.988
246.169
248.207
250.097
251.838
253.426
254.858
256.133
257.249
258.204
258.997
259.628
260.096
260.394
260.518
260.495
260.311
259.968
259.467
258.811
258.002
257.043
255.937
254.688
253.299
251.774
250.119
248.338
246.435
244.415
242.284
240.047
237.71
235.277
232.756
230.151
227.469
224.714
221.895
219.016
216.083
213.103
210.082
207.027
203.943
200.841
197.73
194.628
191.551
188.505
185.485
182.488
179.513
176.562
173.639
170.75
167.899
165.096
162.351
159.678
157.102
154.655
152.402
150.359
148.439
5.87804
2.66798
2.15279
2.05674
2.09656
2.20997
2.37284
2.57461
2.80945
3.07343
3.36338
3.67663
4.01094
4.36458
4.73632
5.12553
5.53203
5.95612
6.39843
6.85992
7.34182
7.84559
8.3729
8.92561
9.50573
10.1154
10.7566
11.4311
12.1403
12.8849
13.6663
14.4857
15.3446
16.244
17.1848
18.1679
19.1944
20.2657
21.3832
22.5478
23.7603
25.0213
26.3316
27.6925
29.1052
30.5712
32.0922
33.6697
35.3052
37.0004
38.7567
40.5757
42.459
44.4081
46.4246
48.5099
50.6658
52.8938
55.1952
57.5716
60.0241
62.5542
65.1628
67.8512
70.62
73.4702
76.4023
79.4167
82.5135
85.6929
88.9545
92.2978
95.7221
99.2264
102.809
106.469
110.204
114.012
117.891
121.836
125.847
129.918
134.046
138.227
142.456
146.73
151.043
155.389
159.764
164.161
168.576
173.001
177.431
181.858
186.275
190.676
195.053
199.397
203.702
207.959
212.16
216.299
220.367
224.358
228.263
232.075
235.787
239.393
242.885
246.256
249.501
252.613
255.586
258.414
261.093
263.618
265.984
268.186
270.222
272.088
273.78
275.296
276.634
277.791
278.768
279.563
280.174
280.603
280.834
280.889
280.769
280.469
279.993
279.341
278.517
277.524
276.365
275.045
273.567
271.936
270.158
268.237
266.178
263.988
261.673
259.237
256.688
254.032
251.276
248.425
245.486
242.466
239.372
236.211
232.988
229.712
226.388
223.024
219.627
216.203
212.761
209.311
205.865
202.437
199.032
195.652
192.298
188.97
185.673
182.411
179.19
176.016
172.9
169.853
166.89
164.037
161.324
158.804
156.478
154.215
6.70829
3.03826
2.4271
2.29798
2.32101
2.42468
2.58039
2.7756
3.00362
3.26019
3.5422
3.84718
4.17314
4.51858
4.88247
5.26427
5.66389
6.08165
6.51826
6.97469
7.45218
7.95213
8.4761
9.02578
9.60288
10.2091
10.8464
11.5167
12.2215
12.9623
13.7407
14.5581
15.4159
16.3153
17.2576
18.2439
19.2756
20.354
21.4805
22.6566
23.8835
25.1625
26.495
27.8825
29.3265
30.8287
32.3911
34.0156
35.7041
37.4585
39.281
41.1734
43.1377
45.1761
47.2905
49.483
51.7556
54.1104
56.5493
59.0742
61.6869
64.389
67.1823
70.068
73.0476
76.1222
79.2926
82.5595
85.9234
89.3844
92.9424
96.597
100.347
104.193
108.131
112.161
116.281
120.487
124.778
129.149
133.597
138.117
142.707
147.359
152.07
156.834
161.645
166.497
171.383
176.296
181.23
186.177
191.128
196.077
201.014
205.932
210.821
215.672
220.476
225.226
229.911
234.523
239.054
243.495
247.837
252.073
256.192
260.189
264.054
267.78
271.361
274.788
278.057
281.159
284.09
286.845
289.417
291.803
293.999
296
297.804
299.408
300.81
302.008
303.001
303.789
304.37
304.741
304.896
304.857
304.616
304.175
303.536
302.703
301.678
300.466
299.07
297.496
295.749
293.834
291.758
289.525
287.143
284.618
281.958
279.168
276.257
273.231
270.099
266.866
263.541
260.131
256.645
253.088
249.47
245.798
242.078
238.319
234.527
230.711
226.879
223.04
219.205
215.383
211.583
207.809
204.064
200.351
196.674
193.04
189.455
185.927
182.467
179.085
175.801
172.636
169.62
166.796
164.149
161.521
7.41067
3.35743
2.66031
2.49938
2.50501
2.59742
2.74415
2.93085
3.15002
3.39711
3.669
3.96336
4.27843
4.61289
4.96595
5.33721
5.72663
6.13427
6.56119
7.0085
7.47744
7.96945
8.4861
9.02914
9.60052
10.2016
10.834
11.4992
12.1991
12.9353
13.7095
14.5232
15.378
16.2755
17.2171
18.2044
19.239
20.3225
21.4567
22.6435
23.885
25.1843
26.542
27.9597
29.4387
30.9816
32.591
34.2694
36.0193
37.8429
39.7429
41.7217
43.7818
45.9259
48.1566
50.4764
52.888
55.3939
57.9966
60.6986
63.5021
66.4095
69.4227
72.5438
75.7743
79.1157
82.5693
86.136
89.8165
93.6111
97.5197
101.542
105.677
109.924
114.28
118.744
123.314
127.986
132.757
137.622
142.579
147.62
152.742
157.939
163.204
168.531
173.912
179.341
184.809
190.308
195.83
201.366
206.907
212.443
217.965
223.462
228.924
234.341
239.703
245
250.221
255.357
260.398
265.333
270.154
274.851
279.413
283.833
288.101
292.209
296.148
299.912
303.492
306.883
310.077
313.068
315.852
318.423
320.777
322.911
324.82
326.502
327.956
329.179
330.171
330.931
331.46
331.747
331.806
331.639
331.247
330.632
329.798
328.748
327.485
326.015
324.344
322.476
320.418
318.176
315.758
313.171
310.421
307.517
304.467
301.278
297.959
294.519
290.964
287.305
283.549
279.706
275.782
271.788
267.73
263.618
259.46
255.264
251.037
246.789
242.527
238.26
233.998
229.75
225.525
221.328
217.164
213.039
208.956
204.924
200.95
197.042
193.211
189.471
185.837
182.333
178.985
175.828
172.834
169.829
7.9772
3.62136
2.84997
2.65819
2.647
2.7269
2.86306
3.03958
3.24823
3.48415
3.74421
4.02619
4.32847
4.64974
4.98969
5.34838
5.72633
6.12441
6.54247
6.98126
7.44193
7.92584
8.43446
8.96937
9.53205
10.1242
10.7475
11.4038
12.0951
12.8231
13.5898
14.3971
15.2467
16.1405
17.0805
18.0686
19.1068
20.1971
21.3418
22.5429
23.8025
25.1223
26.5053
27.954
29.4724
31.062
32.7259
34.4673
36.2891
38.1943
40.1859
42.2669
44.4407
46.7103
49.079
51.5501
54.1267
56.8121
59.6093
62.5213
65.5511
68.7015
71.9749
75.3737
78.9001
82.5557
86.3422
90.2606
94.3118
98.4961
102.813
107.263
111.844
116.555
121.394
126.359
131.445
136.65
141.97
147.399
152.932
158.563
164.287
170.095
175.981
181.937
187.954
194.024
200.136
206.282
212.452
218.635
224.82
230.996
237.152
243.276
249.357
255.383
261.343
267.224
273.016
278.707
284.286
289.741
295.062
300.238
305.259
310.115
314.795
319.291
323.593
327.693
331.583
335.256
338.704
341.922
344.904
347.644
350.139
352.383
354.375
356.111
357.589
358.808
359.768
360.468
360.908
361.084
361.007
360.675
360.093
359.264
358.194
356.885
355.343
353.574
351.583
349.378
346.966
344.355
341.553
338.567
335.407
332.082
328.599
324.97
321.202
317.306
313.291
309.166
304.94
300.624
296.227
291.757
287.225
282.639
278.008
273.341
268.647
263.934
259.21
254.486
249.769
245.069
240.395
235.753
231.15
226.591
222.083
217.633
213.25
208.942
204.721
200.601
196.598
192.733
189.029
185.517
182.159
178.772
8.40734
3.82878
2.99566
2.77517
2.74768
2.81432
2.93872
3.10374
3.30055
3.52404
3.77083
4.03937
4.32873
4.63893
4.96821
5.31614
5.68263
6.0676
6.47198
6.89715
7.34441
7.81514
8.3108
8.83291
9.38313
9.96325
10.5753
11.2213
11.903
12.6225
13.3817
14.1828
15.0279
15.9193
16.8592
17.85
18.8941
19.9941
21.1526
22.3721
23.6556
25.0059
26.4261
27.9195
29.4871
31.1334
32.8636
34.682
36.5922
38.5974
40.7013
42.9077
45.2203
47.6432
50.1801
52.835
55.6119
58.5145
61.5466
64.7118
68.0135
71.4551
75.0396
78.7696
82.6475
86.6755
90.8551
95.1875
99.6735
104.313
109.107
114.053
119.15
124.396
129.789
135.325
141
146.809
152.748
158.81
164.99
171.279
177.67
184.155
190.725
197.37
204.081
210.847
217.657
224.499
231.363
238.236
245.106
251.959
258.783
265.565
272.292
278.95
285.527
292.009
298.384
304.639
310.761
316.738
322.558
328.21
333.681
338.961
344.039
348.905
353.549
357.963
362.138
366.065
369.739
373.151
376.297
379.17
381.767
384.084
386.117
387.864
389.323
390.494
391.377
391.971
392.277
392.296
392.034
391.488
390.668
389.578
388.224
386.609
384.74
382.625
380.269
377.682
374.872
371.847
368.617
365.191
361.579
357.791
353.838
349.729
345.475
341.087
336.576
331.95
327.223
322.402
317.5
312.526
307.49
302.402
297.272
292.109
286.923
281.721
276.514
271.31
266.119
260.949
255.809
250.707
245.649
240.643
235.695
230.814
226.008
221.287
216.663
212.149
207.762
203.521
199.446
195.564
191.829
188.06
8.70696
3.98136
3.09922
2.85325
2.80992
2.8629
2.97469
3.12712
3.31137
3.52284
3.75888
4.01653
4.29397
4.58949
4.90311
5.23508
5.58568
5.95556
6.34594
6.75763
7.19173
7.6496
8.13271
8.6427
9.18131
9.75044
10.3521
10.9884
11.6615
12.3736
13.1271
13.9245
14.7682
15.6609
16.6054
17.6045
18.6612
19.7787
20.96
22.2083
23.5274
24.9212
26.392
27.9421
29.5752
31.2992
33.1185
35.0379
37.0635
39.1988
41.448
43.8154
46.3059
48.9238
51.674
54.561
57.5894
60.7637
64.0883
67.5672
71.2044
75.0035
78.968
83.1006
87.4039
91.88
96.5304
101.356
106.357
111.534
116.886
122.41
128.106
133.969
139.996
146.184
152.525
159.016
165.649
172.417
179.312
186.324
193.446
200.667
207.976
215.362
222.813
230.318
237.863
245.437
253.024
260.611
268.185
275.731
283.234
290.68
298.054
305.342
312.529
319.601
326.543
333.341
339.983
346.455
352.743
358.835
364.719
370.383
375.815
381.006
385.944
390.621
395.027
399.155
402.997
406.547
409.798
412.745
415.384
417.711
419.724
421.421
422.8
423.861
424.605
425.032
425.145
424.949
424.438
423.62
422.505
421.098
419.405
417.431
415.183
412.67
409.9
406.883
403.627
400.144
396.444
392.536
388.433
384.145
379.684
375.061
370.288
365.378
360.34
355.187
349.93
344.581
339.15
333.649
328.089
322.48
316.832
311.156
305.461
299.757
294.052
288.356
282.679
277.028
271.414
265.843
260.324
254.864
249.47
244.151
238.916
233.776
228.741
223.826
219.047
214.421
209.966
205.706
201.59
197.444
8.8885
4.08367
3.16437
2.89635
2.83795
2.87715
2.97663
3.11864
3.2926
3.49246
3.71412
3.95618
4.21763
4.49798
4.79719
5.11514
5.45213
5.80877
6.18597
6.58477
7.00639
7.45223
7.92388
8.42311
8.95182
9.51207
10.1061
10.7361
11.4047
12.1145
12.8682
13.6689
14.5195
15.4231
16.383
17.4028
18.4864
19.6378
20.8601
22.1568
23.5308
24.9834
26.5228
28.156
29.8894
31.7281
33.6773
35.7426
37.9305
40.246
42.6943
45.2808
48.0109
50.89
53.9235
57.1168
60.4748
64.0026
67.705
71.5863
75.6509
79.9023
84.3439
88.9784
93.8082
98.8348
104.059
109.482
115.102
120.918
126.93
133.133
139.524
146.1
152.854
159.781
166.875
174.126
181.529
189.072
196.747
204.542
212.447
220.45
228.539
236.7
244.92
253.184
261.48
269.791
278.103
286.401
294.669
302.89
311.049
319.131
327.118
334.996
342.748
350.36
357.816
365.1
372.2
379.1
385.787
392.248
398.469
404.44
410.147
415.581
420.73
425.585
430.138
434.38
438.304
441.904
445.173
448.108
450.703
452.956
454.864
456.427
457.643
458.513
459.039
459.222
459.07
458.58
457.747
456.589
455.112
453.324
451.229
448.834
446.15
443.185
439.949
436.452
432.705
428.72
424.507
420.078
415.447
410.625
405.625
400.459
395.14
389.682
384.095
378.394
372.589
366.694
360.72
354.679
348.583
342.442
336.269
330.072
323.862
317.649
311.443
305.252
299.086
292.954
286.865
280.827
274.848
268.935
263.097
257.343
251.681
246.122
240.678
235.362
230.19
225.178
220.341
215.701
211.208
206.693
8.94529
4.13504
3.19337
2.90807
2.83721
2.86636
2.95546
3.08443
3.24399
3.4291
3.63699
3.86573
4.11411
4.38156
4.66793
4.97335
5.29823
5.64328
6.00944
6.39784
6.80985
7.24705
7.71121
8.20435
8.72868
9.28655
9.88046
10.5131
11.1874
11.9064
12.6738
13.4937
14.3692
15.3037
16.3011
17.3651
18.4983
19.7032
20.9874
22.357
23.8181
25.3783
27.0427
28.818
30.711
32.728
34.8756
37.1611
39.5907
42.1708
44.9079
47.8087
50.8795
54.1264
57.5553
61.1717
64.981
68.9881
73.1979
77.6145
82.2419
87.0831
92.1407
97.4168
102.913
108.628
114.564
120.718
127.089
133.673
140.468
147.468
154.668
162.061
169.641
177.4
185.328
193.416
201.654
210.03
218.533
227.15
235.868
244.673
253.552
262.489
271.469
280.477
289.497
298.512
307.507
316.464
325.367
334.198
342.942
351.58
360.096
368.473
376.695
384.747
392.611
400.273
407.719
414.932
421.9
428.61
435.047
441.201
447.059
452.611
457.846
462.756
467.331
471.564
475.447
478.976
482.145
484.949
487.384
489.45
491.143
492.465
493.413
493.992
494.202
494.053
493.542
492.66
491.427
489.849
487.935
485.692
483.127
480.249
477.067
473.593
469.838
465.812
461.528
456.998
452.234
447.25
442.06
436.675
431.111
425.38
419.496
413.473
407.324
401.063
394.701
388.254
381.732
375.148
368.515
361.844
355.146
348.432
341.712
334.997
328.296
321.618
314.973
308.369
301.816
295.321
288.893
282.539
276.268
270.089
264.01
258.043
252.198
246.49
240.932
235.54
230.328
225.316
220.453
215.588
8.92667
4.14494
3.19305
2.89831
2.81771
2.83387
2.90939
3.02568
3.17322
3.34662
3.54285
3.76011
3.9974
4.25425
4.53061
4.82678
5.14338
5.48129
5.84163
6.22572
6.63516
7.0718
7.53778
8.0356
8.56828
9.13891
9.75001
10.4048
11.1067
11.8591
12.6653
13.5267
14.4492
15.439
16.5017
17.6431
18.8696
20.1883
21.6046
23.1254
24.7584
26.5117
28.3924
30.4083
32.5669
34.8761
37.3436
39.9773
42.7848
45.7737
48.9518
52.3272
55.9072
59.6978
63.7043
67.9315
72.384
77.066
81.9811
87.1322
92.5216
98.1508
104.021
110.131
116.48
123.068
129.89
136.943
144.223
151.724
159.439
167.363
175.485
183.799
192.294
200.959
209.783
218.755
227.862
237.09
246.427
255.857
265.367
274.94
284.562
294.216
303.885
313.554
323.205
332.821
342.386
351.881
361.29
370.594
379.777
388.821
397.71
406.426
414.953
423.275
431.376
439.241
446.855
454.204
461.275
468.054
474.529
480.687
486.519
492.014
497.161
501.953
506.382
510.44
514.121
517.42
520.333
522.857
524.987
526.724
528.066
529.016
529.569
529.736
529.525
528.926
527.936
526.573
524.845
522.759
520.326
517.55
514.442
511.013
507.273
503.233
498.907
494.306
489.444
484.332
478.986
473.419
467.645
461.679
455.535
449.227
442.769
436.177
429.464
422.643
415.729
408.734
401.673
394.557
387.399
380.211
373.004
365.789
358.578
351.379
344.203
337.059
329.956
322.902
315.907
308.977
302.122
295.35
288.667
282.084
275.61
269.253
263.027
256.944
251.017
245.261
239.688
234.319
229.102
223.909
8.86837
4.13504
3.17669
2.8693
2.77644
2.7817
2.84682
2.95292
3.09057
3.25463
3.44223
3.65178
3.88244
4.13393
4.40643
4.70054
5.01734
5.35857
5.72554
6.11976
6.54326
6.99837
7.48763
8.0135
8.57781
9.18274
9.83417
10.5371
11.2965
12.1177
13.0062
13.9694
15.0128
16.1428
17.3668
18.6926
20.1286
21.6836
23.3661
25.1847
27.1489
29.268
31.5511
34.0073
36.6458
39.4752
42.5037
45.7384
49.1858
52.856
56.758
60.9014
65.2976
69.9476
74.8528
80.015
85.4358
91.1162
97.0566
103.257
109.715
116.429
123.397
130.613
138.074
145.773
153.704
161.86
170.232
178.812
187.59
196.556
205.698
215.006
224.467
234.069
243.798
253.64
263.582
273.609
283.706
293.857
304.048
314.263
324.484
334.697
344.884
355.028
365.114
375.123
385.039
394.846
404.526
414.061
423.436
432.634
441.638
450.432
459.001
467.329
475.401
483.203
490.721
497.941
504.851
511.439
517.693
523.603
529.158
534.349
539.167
543.606
547.657
551.315
554.575
557.433
559.884
561.928
563.561
564.786
565.596
566.009
565.997
565.625
564.817
563.618
562.031
560.064
557.723
555.021
551.965
548.562
544.824
540.763
536.391
531.72
526.763
521.534
516.045
510.312
504.347
498.167
491.786
485.218
478.479
471.583
464.547
457.383
450.107
442.732
435.273
427.743
420.156
412.524
404.86
397.175
389.482
381.791
374.113
366.457
358.833
351.25
343.717
336.242
328.834
321.499
314.247
307.084
300.018
293.059
286.214
279.495
272.912
266.477
260.203
254.104
248.191
242.484
236.934
231.44
8.74723
4.10037
3.1397
2.82529
2.72588
2.72471
2.78392
2.88513
3.01916
3.18125
3.36908
3.58161
3.818
4.07829
4.36305
4.67313
5.00942
5.37216
5.76365
6.18758
6.6474
7.14676
7.6897
8.2808
8.92566
9.63039
10.4002
11.2419
12.1628
13.1709
14.2752
15.485
16.8096
18.2589
19.8432
21.5735
23.461
25.5173
27.7538
30.1818
32.8124
35.6564
38.7238
42.0245
45.5677
49.3616
53.413
57.7279
62.3122
67.1718
72.3125
77.7413
83.4624
89.4687
95.756
102.32
109.156
116.258
123.621
131.239
139.103
147.207
155.541
164.096
172.864
181.834
190.995
200.337
209.849
219.518
229.333
239.282
249.352
259.53
269.804
280.16
290.584
301.063
311.583
322.13
332.689
343.247
353.788
364.298
374.762
385.165
395.492
405.728
415.856
425.863
435.732
445.448
454.997
464.361
473.527
482.479
491.203
499.684
507.908
515.86
523.528
530.899
537.959
544.697
551.102
557.164
562.872
568.216
573.188
577.779
581.983
585.794
589.204
592.208
594.806
596.992
598.762
600.12
601.054
601.586
601.683
601.409
600.702
599.588
598.072
596.165
593.87
591.197
588.155
584.756
581.006
576.915
572.494
567.757
562.717
557.386
551.778
545.907
539.787
533.431
526.856
520.075
513.104
505.958
498.653
491.203
483.624
475.929
468.134
460.253
452.299
444.286
436.226
428.134
420.02
411.898
403.778
395.67
387.585
379.532
371.52
363.559
355.655
347.818
340.054
332.372
324.778
317.279
309.884
302.599
295.435
288.401
281.506
274.763
268.184
261.782
255.566
249.559
243.71
237.959
8.62655
4.04686
3.09439
2.78153
2.68269
2.68298
2.74614
2.85367
2.99656
3.17015
3.37162
3.59896
3.85357
4.13673
4.45007
4.79579
5.17674
5.59697
6.06033
6.5713
7.13545
7.75919
8.44984
9.21556
10.0655
11.0096
12.0578
13.2216
14.5134
15.9464
17.5342
19.2911
21.2316
23.3703
25.7222
28.3019
31.1232
34.199
37.542
41.1637
45.0745
49.282
53.7922
58.6106
63.7418
69.1878
74.947
81.0175
87.3993
94.0899
101.085
108.394
115.976
123.821
131.92
140.259
148.826
157.609
166.595
175.772
185.126
194.647
204.322
214.138
224.085
234.151
244.323
254.592
264.944
275.37
285.858
296.397
306.977
317.585
328.211
338.844
349.473
360.086
370.673
381.221
391.719
402.156
412.519
422.798
432.979
443.05
452.999
462.814
472.481
481.987
491.32
500.467
509.414
518.149
526.658
534.929
542.948
550.704
558.183
565.374
572.265
578.844
585.1
591.023
596.605
601.835
606.705
611.207
615.331
619.072
622.425
625.384
627.942
630.095
631.849