/*--------------------------------*- C++ -*----------------------------------*\
  =========                 |
  \\      /  F ield         | OpenFOAM: The Open Source CFD Toolbox
   \\    /   O peration     | Website:  https://openfoam.org
    \\  /    A nd           | Version:  13
     \\/     M anipulation  |
\*---------------------------------------------------------------------------*/
FoamFile
{
    format      ascii;
    class       volScalarField;
    location    "285";
    object      k;
}
// * * * * * * * * * * * * * * * * * * * * * * * * * * * * * * * * * * * * * //

dimensions      [0 2 -2 0 0 0 0];

internalField   nonuniform List<scalar> 
12225
(
0.362636
0.344572
0.328959
0.311354
0.297249
0.285386
0.277539
0.2721
0.272086
0.273522
0.277462
0.282099
0.290925
0.296912
0.30744
0.31434
0.326169
0.330863
0.440654
0.472683
0.465887
0.452584
0.454139
0.461804
0.477115
0.50044
0.525974
0.553174
0.581544
0.606685
0.634138
0.654099
0.679717
0.693154
0.717814
0.724547
0.390788
0.420417
0.423234
0.419764
0.414442
0.410402
0.410482
0.412385
0.416629
0.423253
0.432428
0.441251
0.452548
0.462416
0.473943
0.484568
0.494412
0.506736
0.377011
0.387782
0.39267
0.392737
0.391717
0.389453
0.387206
0.385596
0.384351
0.384286
0.38474
0.385614
0.387518
0.389629
0.39202
0.39529
0.397552
0.401927
0.37443
0.376214
0.378842
0.379317
0.378984
0.378035
0.376374
0.374645
0.372933
0.371367
0.370163
0.368994
0.368254
0.367648
0.367276
0.367125
0.367136
0.367464
0.373772
0.372733
0.372777
0.3726
0.372115
0.371236
0.37003
0.368598
0.367118
0.365539
0.364103
0.362642
0.361338
0.360106
0.358972
0.357994
0.356996
0.356336
0.373773
0.37174
0.37042
0.369359
0.368371
0.367302
0.36615
0.364858
0.363541
0.362133
0.360767
0.359381
0.358046
0.356758
0.3555
0.35435
0.353175
0.352188
0.373819
0.371557
0.369641
0.367995
0.366545
0.36518
0.363877
0.362557
0.361259
0.359938
0.35864
0.357349
0.35608
0.35485
0.353636
0.352494
0.351345
0.350306
0.373832
0.371552
0.369449
0.367529
0.365788
0.364176
0.362682
0.36125
0.359884
0.358554
0.357263
0.356008
0.354783
0.353602
0.352442
0.351339
0.350245
0.349228
0.373831
0.37156
0.369418
0.367405
0.365531
0.363778
0.362144
0.360602
0.359146
0.35776
0.356435
0.355166
0.353943
0.352773
0.351638
0.350557
0.349499
0.348506
0.373829
0.37156
0.369413
0.367378
0.365458
0.363646
0.36194
0.360328
0.358806
0.357364
0.355993
0.354691
0.353447
0.352262
0.351125
0.350044
0.348997
0.348011
0.373828
0.371558
0.369409
0.36737
0.365439
0.363609
0.361876
0.360235
0.358679
0.357205
0.355805
0.354475
0.353209
0.352006
0.350855
0.349763
0.348712
0.34772
0.373827
0.371556
0.369405
0.367365
0.36543
0.363593
0.361851
0.360197
0.358626
0.357135
0.355717
0.35437
0.353087
0.351868
0.350705
0.3496
0.348542
0.34754
0.373826
0.371555
0.369401
0.367359
0.365422
0.363583
0.361837
0.360178
0.3586
0.357101
0.355674
0.354317
0.353025
0.351795
0.350623
0.349507
0.348442
0.347429
0.373826
0.371553
0.369398
0.367355
0.365416
0.363575
0.361826
0.360164
0.358584
0.357081
0.355651
0.354289
0.352993
0.351758
0.35058
0.349459
0.348388
0.347368
0.373826
0.371552
0.369396
0.367351
0.36541
0.363567
0.361817
0.360153
0.358571
0.357067
0.355634
0.35427
0.352971
0.351734
0.350554
0.349429
0.348356
0.347333
0.373825
0.371551
0.369394
0.367348
0.365406
0.363562
0.36181
0.360145
0.358561
0.357055
0.355621
0.354256
0.352955
0.351716
0.350534
0.349408
0.348333
0.347308
0.373825
0.371551
0.369393
0.367346
0.365403
0.363558
0.361805
0.360139
0.358554
0.357047
0.355612
0.354245
0.352943
0.351703
0.35052
0.349392
0.348316
0.347289
0.373825
0.37155
0.369393
0.367345
0.365402
0.363557
0.361804
0.360137
0.358552
0.357043
0.355608
0.35424
0.352938
0.351696
0.350513
0.349384
0.348307
0.34728
0.373825
0.371551
0.369393
0.367347
0.365404
0.363559
0.361806
0.360139
0.358554
0.357046
0.355611
0.354244
0.352941
0.3517
0.350516
0.349388
0.348311
0.347284
0.373825
0.371551
0.369395
0.367349
0.365407
0.363563
0.361811
0.360145
0.358562
0.357055
0.355621
0.354255
0.352955
0.351715
0.350534
0.349407
0.348333
0.347308
0.373826
0.371552
0.369397
0.367352
0.365412
0.363571
0.361822
0.360161
0.358584
0.357084
0.355657
0.3543
0.353009
0.351778
0.350606
0.349488
0.348422
0.347404
0.373826
0.371554
0.369399
0.367359
0.365429
0.363604
0.361877
0.360244
0.358697
0.357229
0.355834
0.354507
0.353244
0.352038
0.350889
0.349788
0.348739
0.347731
0.373828
0.371551
0.369412
0.367419
0.365562
0.363831
0.362209
0.360679
0.359226
0.357839
0.356511
0.355234
0.354007
0.352823
0.351685
0.350586
0.349533
0.348511
0.373821
0.371556
0.369609
0.367917
0.366386
0.364966
0.363594
0.362245
0.360906
0.359577
0.35826
0.356963
0.355693
0.354452
0.353251
0.352084
0.350969
0.349884
0.373777
0.372005
0.371175
0.370427
0.36959
0.368605
0.367386
0.366004
0.364518
0.362991
0.361459
0.359959
0.358516
0.357128
0.355829
0.354589
0.353457
0.352369
0.374305
0.375713
0.37819
0.378516
0.378002
0.376676
0.374643
0.372466
0.37032
0.368296
0.366462
0.364869
0.363483
0.362293
0.361354
0.360547
0.360006
0.359502
0.378756
0.395559
0.399947
0.398222
0.394246
0.389192
0.385125
0.381892
0.379606
0.378157
0.377699
0.377926
0.378529
0.379771
0.38147
0.383409
0.385775
0.388052
0.408356
0.429527
0.424672
0.413515
0.404682
0.39993
0.400435
0.402831
0.407417
0.414316
0.422128
0.430842
0.439749
0.449023
0.458064
0.467249
0.475961
0.484773
0.3659
0.353614
0.342467
0.330896
0.319894
0.309388
0.300472
0.292784
0.286516
0.281433
0.277761
0.274914
0.273327
0.272157
0.272134
0.272403
0.273023
0.274215
0.000548623
0.00323507
0.00605612
0.00857949
0.0110583
0.0138567
0.0171162
0.0209955
0.0255682
0.0308012
0.0365928
0.042815
0.0493455
0.0560762
0.0629158
0.069783
0.0766034
0.0833024
0.0898021
0.0960159
0.101845
0.107176
0.111875
0.115786
0.118719
0.120444
0.120657
0.118934
0.114619
0.10664
0.10937
0.113557
0.118495
0.121853
0.12471
0.129859
0.136135
0.143971
0.154553
0.149404
0.146425
0.141692
0.151235
0.158103
0.165158
0.173055
0.180662
0.18874
0.196831
0.205177
0.213641
0.222291
0.231089
0.240054
0.249174
0.258455
0.267891
0.277485
0.287233
0.297135
0.307187
0.317388
0.327734
0.338224
0.348851
0.359613
0.370503
0.381518
0.392649
0.403894
0.415242
0.426689
0.438224
0.449843
0.461533
0.473289
0.485097
0.496953
0.50884
0.520754
0.532679
0.544608
0.556525
0.568423
0.580283
0.592098
0.60385
0.615529
0.627115
0.638596
0.649952
0.661162
0.672204
0.683056
0.693694
0.704101
0.714269
0.724226
0.734064
0.743624
0.752979
0.762086
0.770954
0.779562
0.787905
0.79597
0.803747
0.811229
0.818404
0.825266
0.831802
0.838009
0.843876
0.849398
0.854566
0.859375
0.863819
0.867894
0.871594
0.874918
0.877859
0.880415
0.882582
0.884359
0.885744
0.886738
0.887336
0.887533
0.887393
0.886887
0.885934
0.88455
0.882761
0.880686
0.878296
0.875474
0.87231
0.868791
0.864932
0.860738
0.856218
0.851382
0.84624
0.840798
0.835066
0.829056
0.822777
0.816242
0.809463
0.802449
0.795215
0.787772
0.780134
0.772311
0.76432
0.756171
0.74788
0.739459
0.730928
0.722303
0.713618
0.704945
0.696764
0.691351
0.687378
0.683502
0.679601
0.675661
0.671688
0.667684
0.663655
0.659601
0.655518
0.651389
0.64718
0.642812
0.638128
0.632693
0.625648
0.599858
0.0028286
0.0117936
0.0179396
0.0225478
0.026637
0.0306685
0.0349886
0.0397927
0.0451559
0.0510592
0.0574283
0.0641662
0.0711763
0.0783717
0.0856778
0.0930287
0.100364
0.107623
0.114743
0.12165
0.128262
0.134483
0.140202
0.145297
0.149643
0.153137
0.155732
0.157533
0.158955
0.161094
0.166524
0.173108
0.180286
0.187899
0.196355
0.205953
0.216297
0.227183
0.237947
0.246729
0.260327
0.271945
0.284239
0.295806
0.308089
0.320986
0.334164
0.347703
0.361559
0.375746
0.390248
0.40507
0.420206
0.43566
0.45143
0.467518
0.483924
0.50065
0.517694
0.535058
0.55274
0.570739
0.589053
0.60768
0.626616
0.645857
0.665398
0.685233
0.705355
0.725757
0.74643
0.767365
0.788552
0.809979
0.831634
0.853505
0.875576
0.897834
0.920262
0.942846
0.965566
0.988406
1.01135
1.03437
1.05744
1.08056
1.1037
1.12682
1.14992
1.17296
1.19591
1.21875
1.24144
1.26395
1.28622
1.30823
1.3299
1.35117
1.37197
1.39249
1.4127
1.43258
1.45211
1.47127
1.49003
1.50838
1.5263
1.54375
1.56073
1.57721
1.59317
1.6086
1.62347
1.63778
1.65149
1.6646
1.6771
1.68896
1.70017
1.71073
1.72062
1.72982
1.73834
1.74615
1.75326
1.75966
1.76535
1.77032
1.77458
1.77812
1.78095
1.78293
1.78407
1.7846
1.7846
1.78377
1.78223
1.77999
1.77705
1.77343
1.76913
1.76418
1.75858
1.75235
1.7455
1.73805
1.73002
1.72141
1.71226
1.70258
1.69239
1.68171
1.67057
1.65898
1.64697
1.63457
1.62179
1.60866
1.59521
1.58146
1.56746
1.55324
1.53897
1.52506
1.51129
1.49742
1.48344
1.46936
1.45522
1.44103
1.42681
1.41258
1.39834
1.3841
1.36983
1.35551
1.34096
1.32619
1.30983
1.27341
0.00608413
0.0204364
0.0286314
0.034747
0.0401886
0.0455015
0.0509853
0.0568107
0.0630528
0.0697143
0.076751
0.0840963
0.0916797
0.0994361
0.10731
0.115253
0.123223
0.131182
0.139089
0.146901
0.154572
0.16205
0.169283
0.176227
0.182861
0.189211
0.195386
0.201619
0.208293
0.215911
0.224878
0.234814
0.245561
0.257096
0.269439
0.282499
0.296092
0.310106
0.324369
0.339029
0.35439
0.369654
0.385265
0.401143
0.417484
0.434288
0.451499
0.46911
0.487111
0.505502
0.52428
0.543443
0.562991
0.582923
0.603241
0.623943
0.645031
0.666503
0.688359
0.710598
0.733218
0.756216
0.77959
0.803335
0.827446
0.851917
0.876742
0.901914
0.927422
0.953258
0.97941
1.00587
1.03262
1.05965
1.08694
1.11448
1.14224
1.17022
1.1984
1.22674
1.25524
1.28387
1.3126
1.34142
1.37029
1.3992
1.42811
1.45699
1.48582
1.51457
1.54321
1.5717
1.60001
1.62811
1.65596
1.68354
1.71081
1.73775
1.76434
1.79058
1.81643
1.84186
1.86685
1.89135
1.91535
1.93882
1.96173
1.98405
2.00575
2.02681
2.0472
2.0669
2.08589
2.10415
2.12164
2.13836
2.15428
2.16938
2.18365
2.19707
2.20963
2.22131
2.2321
2.24199
2.25098
2.25904
2.26619
2.27241
2.27771
2.28209
2.28551
2.28796
2.28933
2.28986
2.28961
2.28838
2.28623
2.28317
2.27923
2.27441
2.26873
2.26221
2.25486
2.24669
2.23774
2.22802
2.21756
2.20636
2.19447
2.18191
2.16869
2.15485
2.14042
2.12542
2.10989
2.09385
2.07734
2.06038
2.04301
2.02527
2.00719
1.98885
1.97034
1.95191
1.93346
1.91488
1.89618
1.87736
1.85847
1.83954
1.82058
1.80164
1.78273
1.76388
1.74511
1.72644
1.70782
1.68936
1.66981
1.63812
0.00981775
0.0285888
0.0387163
0.0461261
0.0526057
0.0588161
0.0650916
0.0716162
0.0784787
0.0857006
0.093259
0.101108
0.109193
0.117464
0.125877
0.134399
0.143001
0.151662
0.160364
0.169091
0.177828
0.186565
0.195295
0.204024
0.212779
0.221622
0.23066
0.240053
0.249997
0.260677
0.27219
0.284489
0.29754
0.311324
0.325811
0.340941
0.356641
0.372859
0.389557
0.406748
0.424413
0.442446
0.460853
0.479622
0.498808
0.518435
0.5385
0.559001
0.579938
0.601312
0.623122
0.645371
0.668058
0.691185
0.714753
0.738763
0.763215
0.788109
0.813446
0.839223
0.865439
0.892093
0.91918
0.946696
0.974636
1.00299
1.03176
1.06094
1.0905
1.12045
1.15076
1.18144
1.21245
1.2438
1.27545
1.3074
1.33961
1.37208
1.40478
1.43769
1.47077
1.50401
1.53739
1.57086
1.6044
1.63799
1.67159
1.70517
1.73869
1.77213
1.80545
1.83861
1.87159
1.90434
1.93684
1.96904
2.00093
2.03246
2.0636
2.09433
2.12459
2.15437
2.18361
2.21229
2.24037
2.26782
2.2946
2.32067
2.34602
2.37061
2.3944
2.41737
2.43949
2.46074
2.48109
2.50051
2.51899
2.53649
2.55301
2.56852
2.58301
2.59646
2.60885
2.62018
2.63043
2.6396
2.64768
2.65467
2.66056
2.66536
2.66904
2.67158
2.67288
2.67322
2.67253
2.67073
2.66786
2.66393
2.65895
2.65295
2.64594
2.63795
2.62898
2.61908
2.60825
2.59652
2.58392
2.57048
2.55623
2.5412
2.52541
2.5089
2.4917
2.47384
2.45537
2.43631
2.41671
2.39659
2.376
2.35498
2.33359
2.31187
2.28994
2.26792
2.24581
2.22355
2.20115
2.17864
2.15606
2.13343
2.11081
2.08823
2.06574
2.04338
2.02121
1.99931
1.97774
1.95665
1.93498
1.90581
0.01357
0.036218
0.0481112
0.0567064
0.0641028
0.0710617
0.0779632
0.0850176
0.0923362
0.0999641
0.107902
0.116124
0.124594
0.133274
0.142133
0.151147
0.160299
0.169581
0.178989
0.188526
0.198198
0.208017
0.218001
0.228178
0.238587
0.249287
0.260353
0.271879
0.283963
0.296688
0.310101
0.324212
0.339019
0.354513
0.370674
0.387471
0.404868
0.422834
0.441344
0.460383
0.479932
0.499957
0.520431
0.541344
0.562709
0.584541
0.606847
0.629633
0.6529
0.676654
0.700897
0.725632
0.750862
0.77659
0.802817
0.829546
0.856778
0.884515
0.912757
0.941503
0.970753
1.00051
1.03076
1.0615
1.09274
1.12446
1.15666
1.18933
1.22245
1.25603
1.29003
1.32446
1.35929
1.39451
1.43009
1.46603
1.50228
1.53884
1.57568
1.61276
1.65007
1.68758
1.72524
1.76304
1.80093
1.83888
1.87687
1.91484
1.95278
1.99062
2.02835
2.06592
2.10329
2.14043
2.17728
2.21383
2.25001
2.28579
2.32113
2.35599
2.39033
2.4241
2.45726
2.48978
2.5216
2.5527
2.58302
2.61254
2.64122
2.66902
2.6959
2.72184
2.7468
2.77075
2.79367
2.81552
2.83628
2.85592
2.87443
2.89178
2.90796
2.92294
2.93671
2.94926
2.96058
2.97066
2.97949
2.98707
2.9934
2.99847
3.00228
3.00478
3.0059
3.00595
3.00475
3.00232
2.99867
2.99382
2.98779
2.9806
2.97227
2.96282
2.95228
2.94067
2.92803
2.91438
2.89976
2.88418
2.8677
2.85033
2.83213
2.81311
2.79333
2.77282
2.75162
2.72976
2.7073
2.68428
2.66073
2.6367
2.61226
2.58745
2.56238
2.53713
2.51172
2.48615
2.46043
2.43459
2.40868
2.38275
2.35684
2.33101
2.30532
2.27985
2.25468
2.22994
2.20576
2.18234
2.15874
2.13017
0.017151
0.0431427
0.0566174
0.0662892
0.0745096
0.082124
0.0895554
0.0970408
0.104715
0.112646
0.120859
0.12935
0.138099
0.147085
0.156286
0.165688
0.175284
0.185073
0.195063
0.205265
0.215698
0.226384
0.237352
0.248637
0.260278
0.272324
0.284829
0.297849
0.311441
0.325651
0.340509
0.356029
0.372216
0.389066
0.406569
0.424707
0.443461
0.462812
0.482744
0.503243
0.524294
0.545878
0.56798
0.590589
0.613708
0.637342
0.6615
0.686186
0.711409
0.737172
0.763481
0.790342
0.817759
0.845736
0.874278
0.903387
0.933068
0.963322
0.994151
1.02556
1.05754
1.0901
1.12323
1.15693
1.1912
1.22603
1.26142
1.29734
1.33381
1.37079
1.40828
1.44627
1.48473
1.52365
1.563
1.60277
1.64293
1.68344
1.72429
1.76544
1.80687
1.84853
1.8904
1.93243
1.97459
2.01685
2.05915
2.10146
2.14374
2.18594
2.22802
2.26994
2.31165
2.3531
2.39424
2.43504
2.47543
2.51537
2.55482
2.59372
2.63203
2.6697
2.70668
2.74293
2.77839
2.81303
2.8468
2.87966
2.91155
2.94246
2.97232
3.00112
3.0288
3.05535
3.08072
3.10488
3.12781
3.14948
3.16986
3.18894
3.20669
3.22309
3.23813
3.25179
3.26407
3.27495
3.28442
3.29249
3.29916
3.30442
3.30826
3.31061
3.31153
3.31116
3.30941
3.30629
3.30181
3.29599
3.28886
3.28044
3.27076
3.25984
3.24771
3.2344
3.21996
3.20439
3.18776
3.17008
3.1514
3.13175
3.11118
3.08973
3.06744
3.04435
3.0205
2.99595
2.97074
2.94491
2.91852
2.89161
2.86424
2.83648
2.8084
2.78008
2.75156
2.72285
2.69399
2.665
2.63596
2.6069
2.57789
2.54899
2.5203
2.49189
2.4639
2.43649
2.40983
2.38412
2.35852
2.32933
0.0204307
0.0492486
0.0640984
0.0747191
0.0836675
0.0918566
0.0997444
0.107591
0.115551
0.123715
0.132128
0.140806
0.149749
0.158949
0.168397
0.178087
0.18802
0.198202
0.208646
0.21937
0.230399
0.241758
0.25348
0.265599
0.278151
0.291178
0.304718
0.318811
0.333493
0.348792
0.364731
0.381321
0.398568
0.416471
0.435026
0.454223
0.474052
0.494503
0.515565
0.53723
0.559489
0.582333
0.605753
0.629745
0.654307
0.679444
0.705162
0.731468
0.75837
0.785874
0.813988
0.842718
0.872072
0.902056
0.932676
0.963938
0.995846
1.0284
1.06162
1.09549
1.13001
1.1652
1.20105
1.23755
1.2747
1.3125
1.35094
1.39001
1.42971
1.47
1.51089
1.55236
1.59438
1.63694
1.68001
1.72357
1.76758
1.81203
1.85687
1.90207
1.9476
1.99342
2.03949
2.08576
2.1322
2.17876
2.2254
2.27206
2.3187
2.36526
2.41171
2.45798
2.50403
2.54979
2.59522
2.64026
2.68486
2.72895
2.77248
2.81541
2.85767
2.89921
2.93998
2.97993
3.019
3.05714
3.09431
3.13045
3.16552
3.19947
3.23227
3.26386
3.2942
3.32327
3.35103
3.37743
3.40246
3.42608
3.44826
3.46898
3.48822
3.50596
3.52218
3.53687
3.55002
3.56161
3.57165
3.58013
3.58705
3.59241
3.59621
3.59836
3.59899
3.59814
3.59577
3.59189
3.58651
3.57968
3.5714
3.56171
3.55063
3.53821
3.52447
3.50944
3.49317
3.47569
3.45704
3.43726
3.41639
3.39448
3.37158
3.34771
3.32295
3.29732
3.27089
3.2437
3.21579
3.18723
3.15807
3.12835
3.09814
3.0675
3.03651
3.00522
2.9737
2.94198
2.91009
2.87808
2.84601
2.81394
2.78195
2.75011
2.71851
2.68729
2.65657
2.62655
2.59743
2.5694
2.54167
2.51104
0.0233197
0.0544676
0.0704733
0.0819002
0.0914707
0.100151
0.108426
0.116573
0.124764
0.133105
0.14166
0.150464
0.159533
0.168872
0.178484
0.188373
0.198546
0.209015
0.219796
0.230911
0.242385
0.254247
0.266527
0.279258
0.292472
0.306202
0.32048
0.335336
0.350794
0.366876
0.383599
0.400974
0.419006
0.437699
0.457051
0.477059
0.49772
0.519029
0.540983
0.563577
0.586809
0.610676
0.635175
0.660306
0.686072
0.712477
0.739526
0.76723
0.795595
0.824631
0.854347
0.884753
0.915858
0.947669
0.980196
1.01345
1.04743
1.08214
1.1176
1.1538
1.19076
1.22846
1.26692
1.30613
1.34608
1.38678
1.42821
1.47037
1.51324
1.55681
1.60107
1.64599
1.69156
1.73774
1.78453
1.83188
1.87976
1.92814
1.97699
2.02626
2.07592
2.12592
2.17622
2.22677
2.27751
2.32841
2.3794
2.43044
2.48146
2.53242
2.58325
2.63389
2.68428
2.73437
2.78409
2.83337
2.88216
2.93039
2.978
3.02493
3.07111
3.1165
3.16103
3.20464
3.24728
3.28888
3.3294
3.36877
3.40696
3.4439
3.47955
3.51387
3.54681
3.57833
3.60839
3.63695
3.66399
3.68947
3.71337
3.73565
3.75629
3.77528
3.79259
3.80822
3.82214
3.83437
3.84487
3.85367
3.86076
3.86613
3.86981
3.8717
3.87196
3.87056
3.8675
3.86279
3.85647
3.84855
3.83908
3.82807
3.81557
3.80161
3.78622
3.76946
3.75134
3.73193
3.71127
3.68939
3.66635
3.64219
3.61697
3.59073
3.56353
3.53541
3.50644
3.47666
3.44612
3.41489
3.38302
3.35057
3.31759
3.28415
3.25033
3.21618
3.18176
3.14712
3.11231
3.07738
3.04239
3.00742
2.97254
2.93785
2.90346
2.86949
2.83611
2.80352
2.77194
2.74154
2.71156
2.67928
0.0257646
0.0587773
0.0757155
0.0877977
0.0978763
0.106959
0.11555
0.12394
0.13231
0.140781
0.149432
0.158311
0.16745
0.176867
0.186574
0.196585
0.206912
0.217571
0.228581
0.239966
0.251751
0.263963
0.276632
0.289786
0.303455
0.317666
0.332447
0.34782
0.363808
0.380427
0.397692
0.415614
0.434201
0.453459
0.473391
0.493999
0.515285
0.53725
0.559894
0.58322
0.607229
0.631925
0.65731
0.683389
0.710167
0.737651
0.765849
0.794772
0.824431
0.854836
0.885999
0.917932
0.950647
0.984153
1.01846
1.05358
1.08953
1.1263
1.16392
1.20237
1.24168
1.28184
1.32285
1.36471
1.40743
1.45099
1.49538
1.54061
1.58665
1.63349
1.68112
1.7295
1.77863
1.82846
1.87898
1.93014
1.98191
2.03426
2.08715
2.14052
2.19433
2.24854
2.30309
2.35793
2.413
2.46825
2.52362
2.57903
2.63444
2.68978
2.74498
2.79998
2.8547
2.90908
2.96305
3.01654
3.06948
3.1218
3.17343
3.2243
3.27436
3.32352
3.37173
3.41892
3.46504
3.51001
3.55378
3.59629
3.63749
3.67731
3.71572
3.75265
3.78807
3.82192
3.85417
3.88478
3.91372
3.94094
3.96643
3.99014
4.01207
4.03219
4.05048
4.06693
4.08152
4.09426
4.10513
4.11415
4.1213
4.1266
4.13005
4.13161
4.1314
4.12937
4.12555
4.11996
4.11262
4.10358
4.09286
4.0805
4.06653
4.05101
4.03396
4.01544
3.99548
3.97414
3.95147
3.92751
3.90232
3.87595
3.84845
3.81988
3.7903
3.75975
3.72829
3.69599
3.66291
3.62909
3.5946
3.55949
3.52384
3.4877
3.45115
3.41424
3.37704
3.33961
3.30199
3.26425
3.22646
3.1887
3.15105
3.11361
3.0765
3.03988
3.0039
2.96879
2.93475
2.90193
2.86963
2.83559
0.0277375
0.0621888
0.0798439
0.0924299
0.1029
0.112293
0.121126
0.129696
0.138195
0.146752
0.155456
0.164368
0.173529
0.182971
0.192713
0.202777
0.21318
0.223942
0.235084
0.246631
0.258606
0.271036
0.283947
0.297365
0.311317
0.325828
0.34092
0.356615
0.372931
0.389886
0.407494
0.425768
0.444719
0.464355
0.484685
0.505715
0.527452
0.549901
0.57307
0.596965
0.621594
0.646963
0.67308
0.699954
0.727596
0.756014
0.785222
0.815231
0.846056
0.87771
0.910209
0.943565
0.977793
1.01291
1.04892
1.08584
1.12369
1.16247
1.20219
1.24287
1.28449
1.32708
1.37064
1.41515
1.46063
1.50706
1.55443
1.60274
1.65197
1.70211
1.75313
1.805
1.85771
1.91122
1.96549
2.0205
2.07619
2.13253
2.18946
2.24694
2.30492
2.36334
2.42214
2.48127
2.54065
2.60022
2.65992
2.71968
2.77943
2.8391
2.8986
2.95788
3.01685
3.07544
3.13356
3.19115
3.24813
3.30441
3.35994
3.41463
3.4684
3.5212
3.57294
3.62356
3.673
3.72117
3.76803
3.81351
3.85755
3.90008
3.94106
3.98043
4.01815
4.05416
4.08843
4.12091
4.15157
4.18036
4.20727
4.23226
4.25531
4.2764
4.29551
4.31263
4.32775
4.34087
4.35197
4.36107
4.36817
4.37328
4.3764
4.37754
4.37677
4.37403
4.36937
4.36282
4.35442
4.34419
4.33219
4.31844
4.30299
4.28588
4.26717
4.24689
4.22511
4.20186
4.17721
4.15121
4.12392
4.09539
4.06568
4.03485
4.00295
3.97006
3.93622
3.9015
3.86596
3.82967
3.79267
3.75504
3.71683
3.67812
3.63896
3.59944
3.5596
3.51951
3.47923
3.43883
3.39837
3.35795
3.31766
3.2776
3.2379
3.19871
3.16022
3.12263
3.08616
3.05093
3.01628
2.98027
0.029236
0.064743
0.0829127
0.0958578
0.106604
0.116216
0.125214
0.133903
0.142478
0.151075
0.15979
0.168692
0.177834
0.187253
0.19698
0.207041
0.217457
0.228251
0.239443
0.251058
0.263118
0.275649
0.288675
0.302221
0.316311
0.330966
0.34621
0.362063
0.378543
0.39567
0.41346
0.431928
0.451088
0.470952
0.491534
0.512844
0.534895
0.557697
0.581263
0.605603
0.630729
0.656653
0.68339
0.710953
0.739355
0.768611
0.798737
0.829749
0.861664
0.8945
0.928274
0.963004
0.998705
1.03539
1.07309
1.1118
1.15154
1.19233
1.23417
1.27707
1.32104
1.36609
1.41222
1.45943
1.5077
1.55705
1.60745
1.65889
1.71136
1.76483
1.81929
1.8747
1.93103
1.98824
2.0463
2.10517
2.16479
2.22511
2.28609
2.34767
2.40979
2.47238
2.53538
2.59872
2.66233
2.72615
2.79008
2.85407
2.91803
2.98188
3.04555
3.10894
3.17198
3.23459
3.29668
3.35817
3.41897
3.47901
3.5382
3.59646
3.65373
3.70991
3.76493
3.81873
3.87123
3.92235
3.97204
4.02022
4.06683
4.11181
4.1551
4.19666
4.23642
4.27433
4.31037
4.34447
4.37661
4.40674
4.43484
4.46089
4.48485
4.5067
4.52643
4.54404
4.5595
4.57281
4.58399
4.59302
4.59992
4.6047
4.60738
4.60798
4.60655
4.60301
4.59743
4.58986
4.58033
4.56888
4.55556
4.5404
4.52345
4.50477
4.4844
4.4624
4.43882
4.41371
4.38714
4.35917
4.32985
4.29925
4.26742
4.23443
4.20035
4.16522
4.12913
4.09213
4.05428
4.01565
3.9763
3.9363
3.8957
3.85458
3.81299
3.77102
3.72872
3.68615
3.64339
3.6005
3.55755
3.51465
3.47187
3.42934
3.38718
3.34557
3.30467
3.26471
3.22585
3.18826
3.15128
3.11326
0.0302807
0.0665087
0.0850045
0.0981742
0.109089
0.118827
0.127915
0.136658
0.145255
0.153845
0.162532
0.17139
0.180479
0.189842
0.199512
0.209519
0.219888
0.230643
0.241806
0.253402
0.265453
0.277982
0.291014
0.304571
0.318677
0.333355
0.348623
0.364505
0.381022
0.398195
0.416043
0.434585
0.453839
0.473823
0.494554
0.516046
0.538318
0.561388
0.585271
0.609983
0.635539
0.661955
0.689253
0.717452
0.74657
0.776626
0.807642
0.839637
0.872633
0.906652
0.941713
0.977837
1.01504
1.05335
1.09277
1.13332
1.17502
1.21789
1.26192
1.30714
1.35355
1.40115
1.44995
1.49994
1.55111
1.60346
1.65697
1.71163
1.76741
1.82429
1.88225
1.94124
2.00122
2.06217
2.12402
2.18674
2.25027
2.31455
2.37952
2.44512
2.51128
2.57793
2.645
2.71241
2.78009
2.84796
2.91593
2.98393
3.05186
3.11965
3.1872
3.25443
3.32125
3.38757
3.4533
3.51836
3.58265
3.64609
3.70859
3.77007
3.83045
3.88965
3.94759
4.00418
4.05936
4.11305
4.16519
4.21569
4.26451
4.31157
4.35681
4.40019
4.44164
4.48112
4.51858
4.55398
4.58728
4.61844
4.64744
4.67425
4.69884
4.7212
4.74131
4.75915
4.77473
4.78804
4.79908
4.80787
4.8144
4.81871
4.82081
4.82074
4.81857
4.81411
4.80753
4.79887
4.78817
4.77547
4.7608
4.74423
4.7258
4.70557
4.68358
4.6599
4.63459
4.6077
4.57931
4.54946
4.51823
4.48568
4.45187
4.41687
4.38074
4.34356
4.30538
4.26627
4.2263
4.18553
4.14403
4.10185
4.05907
4.01575
3.97195
3.92775
3.8832
3.83838
3.79336
3.74819
3.70297
3.65778
3.61273
3.56792
3.5235
3.47962
3.43646
3.39424
3.35313
3.31326
3.27403
3.23405
0.0309141
0.0675643
0.0862175
0.0994892
0.110471
0.120251
0.129355
0.13809
0.146661
0.155207
0.163832
0.172614
0.181611
0.190874
0.20044
0.210342
0.220608
0.231263
0.24233
0.253832
0.265794
0.278237
0.291185
0.304663
0.318695
0.333309
0.34852
0.364351
0.380825
0.397965
0.415795
0.434336
0.453613
0.473648
0.494464
0.516088
0.538551
0.56187
0.586062
0.611147
0.637142
0.664057
0.691928
0.720784
0.750651
0.781554
0.813519
0.846571
0.880735
0.916035
0.952494
0.990134
1.02897
1.06904
1.11034
1.15289
1.19672
1.24183
1.28823
1.33594
1.38495
1.43527
1.4869
1.53983
1.59405
1.64955
1.7063
1.76429
1.82349
1.88386
1.94537
2.00798
2.07164
2.13631
2.20193
2.26844
2.33579
2.40391
2.47273
2.54218
2.6122
2.68269
2.75358
2.82479
2.89624
2.96784
3.03951
3.11115
3.18267
3.25398
3.325
3.39562
3.46576
3.53533
3.60422
3.67235
3.73963
3.80596
3.87126
3.93544
3.99842
4.0601
4.12042
4.17929
4.23664
4.29238
4.34645
4.39878
4.4493
4.49795
4.54466
4.58939
4.63208
4.67267
4.71113
4.74741
4.78147
4.81328
4.84281
4.87003
4.89492
4.91746
4.93764
4.95544
4.97088
4.98393
4.99462
5.00294
5.00893
5.01259
5.01395
5.01313
5.01004
5.00459
4.99694
4.98715
4.97524
4.96126
4.94526
4.9273
4.90742
4.88568
4.86215
4.83688
4.80994
4.78138
4.75129
4.71971
4.68673
4.65239
4.61678
4.57996
4.542
4.50296
4.46292
4.42194
4.38008
4.33741
4.294
4.24991
4.2052
4.15994
4.1142
4.06803
4.02152
3.97471
3.92769
3.88052
3.83328
3.78607
3.73898
3.69213
3.64567
3.59973
3.55452
3.51022
3.467
3.425
3.38366
3.34185
0.0311139
0.0679331
0.0866187
0.099895
0.110862
0.120612
0.129672
0.138351
0.146849
0.15531
0.163842
0.172534
0.181438
0.190601
0.200063
0.209857
0.220012
0.230552
0.241503
0.252888
0.26473
0.277053
0.289881
0.303238
0.317148
0.331637
0.346727
0.362446
0.378822
0.395886
0.413666
0.43219
0.451489
0.471589
0.49252
0.514308
0.53698
0.560566
0.585092
0.610583
0.637071
0.66457
0.693127
0.722779
0.753553
0.785478
0.818584
0.852902
0.888462
0.925287
0.963402
1.00283
1.04359
1.08569
1.12916
1.17402
1.22027
1.26792
1.31699
1.36747
1.41937
1.47268
1.52739
1.5835
1.64097
1.6998
1.75996
1.8214
1.88411
1.94803
2.01313
2.07935
2.14665
2.21495
2.28422
2.35437
2.42534
2.49706
2.56945
2.64244
2.71595
2.78989
2.86419
2.93874
3.01347
3.08829
3.1631
3.23781
3.31232
3.38655
3.4604
3.53377
3.60657
3.6787
3.75006
3.82057
3.89014
3.95866
4.02605
4.09222
4.15708
4.22055
4.28256
4.34301
4.40184
4.45896
4.51431
4.56781
4.6194
4.66901
4.7166
4.76209
4.80545
4.84661
4.88554
4.92219
4.95653
4.98852
5.01813
5.04534
5.07013
5.09248
5.11239
5.12983
5.14482
5.15734
5.16742
5.17506
5.18029
5.18312
5.18361
5.18193
5.17777
5.17125
5.16248
5.15151
5.13838
5.12314
5.10583
5.08652
5.06527
5.04212
5.01715
4.99042
4.96199
4.93194
4.90032
4.86721
4.83268
4.79678
4.75961
4.72121
4.68167
4.64105
4.59942
4.55684
4.51339
4.46913
4.42411
4.37842
4.3321
4.28523
4.23786
4.19006
4.14189
4.09343
4.04473
3.99587
3.94693
3.898
3.84918
3.80058
3.75234
3.70461
3.65758
3.61142
3.5663
3.52238
3.47913
3.43568
0.0310505
0.067854
0.0864734
0.0996928
0.1106
0.120283
0.129265
0.137855
0.146256
0.15461
0.163023
0.171571
0.180319
0.189315
0.198601
0.208213
0.218181
0.228532
0.239291
0.250484
0.262135
0.274269
0.286912
0.300092
0.313836
0.328175
0.34314
0.358767
0.375087
0.392134
0.409943
0.428551
0.447989
0.46829
0.489488
0.511619
0.534718
0.558832
0.58398
0.610187
0.637469
0.66587
0.695449
0.726238
0.758277
0.791603
0.826251
0.862258
0.899663
0.938481
0.978734
1.02044
1.06361
1.10827
1.15441
1.20206
1.25121
1.30188
1.35406
1.40774
1.46292
1.51958
1.5777
1.63727
1.69824
1.7606
1.82429
1.88929
1.95554
2.023
2.0916
2.1613
2.23203
2.30373
2.37633
2.44975
2.52393
2.59878
2.67423
2.75019
2.82659
2.90333
2.98033
3.0575
3.13475
3.21198
3.28912
3.36605
3.44269
3.51894
3.59472
3.66992
3.74444
3.8182
3.89111
3.96306
4.03396
4.10373
4.17228
4.23952
4.30535
4.36971
4.43251
4.49368
4.55313
4.61079
4.66659
4.72047
4.77235
4.82218
4.86991
4.91546
4.95881
4.99989
5.03866
5.07509
5.10914
5.14077
5.16997
5.1967
5.22094
5.24269
5.26193
5.27866
5.29287
5.30458
5.31378
5.3205
5.32476
5.32659
5.32612
5.3234
5.31808
5.31044
5.30051
5.28836
5.27403
5.25757
5.23903
5.21847
5.19596
5.17154
5.1453
5.11728
5.08757
5.05623
5.02333
4.98894
4.95312
4.91596
4.87751
4.83785
4.79705
4.75518
4.7123
4.66848
4.6238
4.5783
4.53206
4.48513
4.43759
4.38948
4.34087
4.29182
4.24239
4.19265
4.14266
4.09249
4.04222
3.99193
3.94172
3.8917
3.84202
3.79282
3.74426
3.69653
3.64978
3.60418
3.55925
3.51444
0.0308441
0.0675213
0.0859521
0.0990112
0.109758
0.119274
0.128084
0.136495
0.14471
0.152873
0.161087
0.169435
0.177982
0.186781
0.195873
0.205291
0.215065
0.225224
0.235796
0.246808
0.25829
0.27027
0.282782
0.295857
0.309531
0.323839
0.33882
0.35451
0.37095
0.388182
0.40625
0.425206
0.445092
0.465941
0.487792
0.51068
0.534633
0.55965
0.585807
0.613175
0.641822
0.671798
0.703134
0.735862
0.770018
0.805637
0.842746
0.881368
0.921517
0.963223
1.00651
1.05141
1.09791
1.146
1.19568
1.24695
1.2998
1.35422
1.41019
1.4677
1.52672
1.58721
1.64916
1.71251
1.77722
1.84326
1.91056
1.97909
2.04878
2.11957
2.1914
2.26421
2.33793
2.41248
2.48781
2.56382
2.64046
2.71763
2.79526
2.87327
2.95157
3.03008
3.10872
3.1874
3.26602
3.34451
3.42277
3.50072
3.57825
3.65529
3.73174
3.80752
3.88252
3.95666
4.02984
4.10199
4.17301
4.24281
4.31132
4.37843
4.44408
4.50818
4.57065
4.63143
4.69044
4.7476
4.80285
4.85612
4.90735
4.95648
5.00346
5.04824
5.09076
5.13099
5.16887
5.20437
5.23746
5.26811
5.29629
5.32198
5.34516
5.36582
5.38396
5.39955
5.41263
5.42318
5.43121
5.43674
5.4398
5.44043
5.43893
5.43491
5.42839
5.41955
5.40844
5.39511
5.37961
5.36199
5.3423
5.32061
5.29697
5.27145
5.24412
5.21503
5.18427
5.1519
5.11799
5.0826
5.04582
5.0077
4.96832
4.92775
4.88605
4.8433
4.79956
4.7549
4.70937
4.66305
4.61599
4.56825
4.51989
4.47097
4.42154
4.37166
4.32139
4.27079
4.21992
4.16885
4.11764
4.06638
4.01517
3.96412
3.91335
3.863
3.81325
3.76426
3.71617
3.66917
3.62283
3.57695
0.0304315
0.0668279
0.0849674
0.0977902
0.108311
0.117605
0.126197
0.134394
0.1424
0.150358
0.158375
0.16653
0.17489
0.183505
0.19242
0.201672
0.211296
0.221324
0.231789
0.242724
0.254165
0.26615
0.278718
0.291909
0.305767
0.320347
0.335705
0.351877
0.368909
0.386848
0.405733
0.425582
0.446431
0.468374
0.491482
0.515815
0.541436
0.56843
0.596831
0.626687
0.658057
0.690982
0.725495
0.761622
0.799388
0.838813
0.879907
0.922675
0.967124
1.01325
1.06105
1.11047
1.1615
1.21414
1.26837
1.32415
1.38147
1.44028
1.50055
1.56225
1.62532
1.68973
1.75542
1.82234
1.89044
1.95967
2.02997
2.10127
2.17353
2.24668
2.32065
2.39539
2.47082
2.54688