/*--------------------------------*- C++ -*----------------------------------*\
  =========                 |
  \\      /  F ield         | OpenFOAM: The Open Source CFD Toolbox
   \\    /   O peration     | Website:  https://openfoam.org
    \\  /    A nd           | Version:  13
     \\/     M anipulation  |
\*---------------------------------------------------------------------------*/
FoamFile
{
    format      ascii;
    class       volScalarField;
    location    "285";
    object      mag(U);
}
// * * * * * * * * * * * * * * * * * * * * * * * * * * * * * * * * * * * * * //

dimensions      [0 1 -1 0 0 0 0];

internalField   nonuniform List<scalar> 
12225
(
9.88363
9.68284
9.46014
9.22662
9.00945
8.81821
8.65177
8.50947
8.3876
8.28447
8.19579
8.11933
8.05249
7.99335
7.94048
7.89395
7.84206
7.83081
10.0699
10.1359
10.1242
10.0837
10.039
9.99184
9.93954
9.88158
9.82096
9.75914
9.69824
9.63891
9.58199
9.52799
9.47641
9.4293
9.38158
9.34723
10.0042
10.0325
10.0586
10.0724
10.0783
10.0783
10.0724
10.0608
10.0454
10.0269
10.0064
9.98431
9.96129
9.9378
9.91405
9.89086
9.86778
9.8462
9.99796
10.0121
10.0367
10.0541
10.0658
10.0745
10.0803
10.083
10.0832
10.0815
10.0783
10.0739
10.0685
10.0625
10.0558
10.0489
10.042
10.0351
9.99934
10.0093
10.0281
10.0426
10.0536
10.0637
10.0724
10.0791
10.084
10.0878
10.0906
10.0925
10.0937
10.0943
10.0945
10.0945
10.0944
10.0943
10.0003
10.0083
10.023
10.0353
10.0455
10.0553
10.0643
10.0719
10.0784
10.084
10.0888
10.093
10.0967
10.0999
10.1028
10.1056
10.1082
10.1108
10.0004
10.0071
10.0192
10.0303
10.0398
10.0489
10.0576
10.0653
10.0721
10.0782
10.0838
10.0889
10.0935
10.0978
10.1019
10.1058
10.1096
10.1133
10.0004
10.0059
10.0162
10.0264
10.0353
10.0438
10.0519
10.0594
10.0662
10.0724
10.0782
10.0836
10.0886
10.0934
10.0979
10.1023
10.1065
10.1107
10.0004
10.005
10.0137
10.023
10.0313
10.0392
10.047
10.0542
10.0608
10.067
10.0728
10.0782
10.0834
10.0883
10.093
10.0975
10.1019
10.1063
10.0004
10.0043
10.0116
10.0199
10.0277
10.0352
10.0425
10.0494
10.0559
10.0619
10.0676
10.073
10.0782
10.0831
10.0878
10.0924
10.0968
10.1011
10.0003
10.0036
10.0099
10.0173
10.0246
10.0316
10.0385
10.0451
10.0513
10.0572
10.0628
10.0681
10.0732
10.078
10.0827
10.0872
10.0915
10.0957
10.0003
10.0032
10.0086
10.0152
10.0219
10.0285
10.0352
10.0415
10.0475
10.0532
10.0586
10.0639
10.0688
10.0736
10.0782
10.0826
10.0867
10.0907
10.0003
10.0028
10.0075
10.0134
10.0197
10.0259
10.0321
10.0381
10.0439
10.0494
10.0547
10.0598
10.0647
10.0693
10.0738
10.0781
10.0822
10.0861
10.0002
10.0024
10.0064
10.0117
10.0174
10.0232
10.029
10.0347
10.0403
10.0456
10.0508
10.0557
10.0604
10.0649
10.0693
10.0734
10.0774
10.0812
10.0002
10.002
10.0055
10.0101
10.0153
10.0206
10.026
10.0314
10.0367
10.0418
10.0467
10.0515
10.0561
10.0604
10.0646
10.0686
10.0724
10.076
10.0002
10.0017
10.0047
10.0087
10.0134
10.0183
10.0233
10.0283
10.0333
10.0382
10.0429
10.0474
10.0518
10.056
10.06
10.0639
10.0675
10.071
10.0002
10.0015
10.0041
10.0076
10.0118
10.0163
10.0209
10.0256
10.0303
10.0349
10.0394
10.0438
10.048
10.052
10.0559
10.0595
10.063
10.0663
10.0001
10.0013
10.0036
10.0068
10.0107
10.0148
10.0192
10.0236
10.0281
10.0325
10.0368
10.0409
10.045
10.0488
10.0525
10.056
10.0594
10.0625
10.0001
10.0012
10.0034
10.0065
10.0102
10.0143
10.0185
10.0228
10.0271
10.0313
10.0355
10.0395
10.0434
10.0471
10.0507
10.0541
10.0573
10.0604
10.0001
10.0013
10.0037
10.007
10.0108
10.015
10.0193
10.0237
10.028
10.0323
10.0364
10.0404
10.0442
10.0479
10.0514
10.0548
10.0579
10.0609
10.0002
10.0015
10.0041
10.0078
10.012
10.0164
10.021
10.0255
10.03
10.0343
10.0385
10.0426
10.0464
10.0501
10.0536
10.0569
10.06
10.063
10.0002
10.0016
10.0047
10.009
10.0137
10.0185
10.0234
10.0281
10.0328
10.0373
10.0416
10.0457
10.0495
10.0532
10.0567
10.06
10.0632
10.0662
10.0001
10.0018
10.0054
10.0105
10.0159
10.0211
10.0263
10.0314
10.0362
10.0409
10.0453
10.0494
10.0534
10.0571
10.0606
10.0639
10.067
10.07
10.0001
10.0018
10.0062
10.0123
10.0183
10.0241
10.0297
10.0351
10.0401
10.0449
10.0494
10.0537
10.0577
10.0615
10.065
10.0683
10.0714
10.0744
9.99989
10.0016
10.0073
10.0143
10.0207
10.027
10.0333
10.0393
10.0447
10.0497
10.0543
10.0586
10.0626
10.0663
10.0697
10.0728
10.0757
10.0784
9.99858
9.9991
10.0077
10.017
10.0242
10.0311
10.0381
10.0446
10.0504
10.0554
10.06
10.064
10.0675
10.0707
10.0734
10.0758
10.0779
10.0797
9.99496
9.99336
10.0071
10.0215
10.0319
10.0403
10.0476
10.0536
10.0583
10.0621
10.0649
10.067
10.0684
10.0692
10.0694
10.0693
10.0688
10.068
9.99479
10.0002
10.0165
10.0326
10.0454
10.0547
10.0603
10.0623
10.0617
10.059
10.0548
10.0494
10.043
10.036
10.0284
10.0204
10.0122
10.004
10.0407
10.0912
10.0934
10.0777
10.0632
10.0495
10.0322
10.0106
9.98579
9.95921
9.93165
9.90367
9.87578
9.8483
9.8215
9.7955
9.77053
9.74663
9.94688
9.87425
9.76462
9.62614
9.48642
9.35859
9.24455
9.14312
9.05341
8.9743
8.90423
8.84188
8.78604
8.73579
8.69025
8.6488
8.61052
8.57511
0.0112052
0.0224666
0.0284139
0.0314174
0.0314715
0.0284097
0.0230731
0.017026
0.0148028
0.021249
0.0331877
0.0476423
0.063636
0.0808168
0.0990269
0.11818
0.138221
0.159108
0.180802
0.203272
0.226478
0.250385
0.274951
0.300129
0.325863
0.352101
0.378783
0.405867
0.433357
0.46134
0.489935
0.51919
0.549087
0.579685
0.611272
0.644118
0.67845
0.714162
0.752582
0.793281
0.832885
0.871847
0.902527
0.938059
0.977167
1.01759
1.05758
1.09807
1.13869
1.17934
1.21997
1.2605
1.30092
1.3412
1.38131
1.42123
1.46095
1.50045
1.53972
1.57873
1.61746
1.6559
1.69403
1.7318
1.76921
1.80622
1.84278
1.8789
1.91452
1.9496
1.98412
2.01804
2.05131
2.0839
2.11576
2.14687
2.17717
2.20663
2.23521
2.26286
2.28956
2.31525
2.33988
2.36344
2.38587
2.40713
2.4272
2.44602
2.46355
2.47975
2.49458
2.50799
2.51992
2.53031
2.53907
2.54616
2.55148
2.5549
2.55633
2.55634
2.55482
2.55182
2.54734
2.54136
2.53389
2.5249
2.51439
2.50235
2.48879
2.47369
2.45707
2.43892
2.41924
2.39804
2.37534
2.35112
2.32541
2.29822
2.26955
2.23943
2.20787
2.1749
2.14053
2.10479
2.06769
2.02926
1.98954
1.94854
1.9063
1.86285
1.81821
1.77244
1.72556
1.6776
1.62862
1.57863
1.5277
1.47586
1.42316
1.36963
1.31534
1.26032
1.2046
1.14826
1.09132
1.03384
0.975858
0.917424
0.858583
0.799383
0.739866
0.68008
0.62007
0.55988
0.499559
0.439155
0.378724
0.318336
0.258088
0.198156
0.138954
0.0819681
0.0380693
0.0584815
0.112176
0.169965
0.228573
0.287338
0.346058
0.404641
0.463029
0.521156
0.578938
0.636222
0.692795
0.748017
0.801571
0.848557
0.894762
0.887564
0.031365
0.0320447
0.0206087
0.00820865
0.00772065
0.0197471
0.0321393
0.0447824
0.0581585
0.072652
0.0884398
0.105543
0.123901
0.143425
0.164039
0.185676
0.208292
0.23185
0.256327
0.281706
0.307976
0.335134
0.363183
0.392138
0.422019
0.452858
0.484689
0.517557
0.551508
0.586585
0.622789
0.66014
0.698698
0.738463
0.779303
0.820986
0.862953
0.905265
0.946943
0.986383
1.02616
1.06731
1.11096
1.15207
1.19111
1.22905
1.2666
1.30373
1.34048
1.3769
1.41302
1.44883
1.48436
1.51961
1.55456
1.5892
1.62354
1.65754
1.69121
1.72452
1.75746
1.79001
1.82214
1.85384
1.88507
1.91582
1.94605
1.97574
2.00485
2.03336
2.06125
2.08847
2.115
2.1408
2.16585
2.19011
2.21354
2.23611
2.25781
2.27859
2.29841
2.31725
2.33508
2.35186
2.36757
2.38217
2.39563
2.40793
2.41904
2.42892
2.43757
2.44496
2.45109
2.45595
2.45955
2.46192
2.46314
2.46329
2.4625
2.46032
2.45675
2.45175
2.44528
2.43735
2.42793
2.41703
2.40462
2.39071
2.3753
2.35839
2.33995
2.32001
2.29857
2.27563
2.25119
2.22527
2.19788
2.16902
2.13871
2.10696
2.0738
2.03923
2.00329
1.96599
1.92736
1.88742
1.84618
1.8037
1.75999
1.71508
1.66902
1.62182
1.57354
1.52419
1.47383
1.42249
1.37021
1.31705
1.26304
1.20821
1.15264
1.09635
1.0394
0.981821
0.923674
0.865004
0.805859
0.74629
0.686347
0.626082
0.56555
0.504812
0.443937
0.383008
0.32214
0.261516
0.201492
0.142954
0.088991
0.0552417
0.0762951
0.127297
0.18484
0.244189
0.30414
0.364309
0.424535
0.484716
0.544794
0.604729
0.664476
0.723981
0.783159
0.841869
0.899892
0.956709
1.01191
1.06252
1.11169
1.13795
0.0389272
0.0253998
0.0111324
0.0201416
0.0374738
0.0549153
0.0718374
0.0883572
0.1048
0.121537
0.13888
0.157044
0.176148
0.196241
0.217332
0.239413
0.26247
0.286487
0.311456
0.337369
0.364222
0.392019
0.420764
0.450467
0.481138
0.512789
0.545426
0.579047
0.61364
0.649145
0.685415
0.722245
0.759449
0.796851
0.834267
0.871462
0.908164
0.944189
0.979281
1.01327
1.04659
1.08053
1.11539
1.14977
1.18328
1.21619
1.2488
1.28113
1.31324
1.34512
1.37682
1.40831
1.43963
1.47077
1.50169
1.53242
1.56294
1.59322
1.62325
1.65301
1.6825
1.71167
1.74052
1.76901
1.79713
1.82484
1.85212
1.87895
1.90528
1.93109
1.95636
1.98106
2.00513
2.02858
2.05134
2.07339
2.0947
2.11525
2.13499
2.1539
2.17193
2.18906
2.20525
2.22049
2.23472
2.24793
2.2601
2.27118
2.28115
2.29
2.29769
2.30424
2.30959
2.31378
2.31678
2.31859
2.31921
2.31862
2.31675
2.31354
2.30897
2.30299
2.29562
2.28682
2.27659
2.26492
2.25179
2.2372
2.22116
2.20366
2.18468
2.16426
2.14236
2.11901
2.09422
2.06797
2.04031
2.01121
1.98071
1.94881
1.91553
1.88089
1.84492
1.80762
1.76902
1.72914
1.68803
1.64569
1.60217
1.55748
1.51166
1.46474
1.41677
1.36777
1.31778
1.26685
1.21503
1.16233
1.10882
1.05454
0.999536
0.943856
0.88755
0.830668
0.773265
0.715396
0.65712
0.598507
0.539629
0.48058
0.421475
0.362478
0.303847
0.246042
0.190024
0.1382
0.0977102
0.0864742
0.113576
0.160638
0.214871
0.271953
0.33035
0.389417
0.448823
0.508394
0.568023
0.627633
0.68717
0.746589
0.805849
0.86489
0.923631
0.981936
1.0396
1.0962
1.15141
1.20328
1.25477
1.29364
0.030524
0.0151719
0.0272133
0.048359
0.0695264
0.0898773
0.109417
0.128325
0.146857
0.165311
0.18397
0.203077
0.222806
0.243275
0.264551
0.28667
0.30965
0.333493
0.358201
0.383765
0.410178
0.437425
0.465487
0.49434
0.523952
0.554278
0.585257
0.616809
0.64883
0.681184
0.713708
0.746216
0.778532
0.810512
0.842058
0.873108
0.903628
0.933595
0.963038
0.992084
1.02096
1.0501
1.07956
1.10896
1.13809
1.167
1.19579
1.22445
1.25299
1.28145
1.3098
1.33805
1.3662
1.39424
1.42216
1.44994
1.47757
1.50504
1.53232
1.5594
1.58624
1.61285
1.63918
1.66521
1.69092
1.71628
1.74126
1.76584
1.78998
1.81367
1.83685
1.85949
1.88159
1.9031
1.92398
1.94421
1.96374
1.98256
2.00063
2.01791
2.03437
2.04999
2.06472
2.07854
2.09142
2.10334
2.11425
2.12415
2.13299
2.14077
2.14744
2.15301
2.15745
2.16074
2.16288
2.16384
2.16359
2.16209
2.15932
2.15523
2.14983
2.14308
2.13498
2.1255
2.11465
2.1024
2.08876
2.07371
2.05726
2.03939
2.02012
1.99943
1.97733
1.95383
1.92892
1.90264
1.87496
1.84591
1.81551
1.78375
1.75067
1.71627
1.68059
1.64362
1.6054
1.56595
1.5253
1.48347
1.44051
1.39642
1.35125
1.30503
1.25779
1.20958
1.16043
1.11037
1.05947
1.00775
0.955272
0.902086
0.848243
0.7938
0.738819
0.683369
0.627525
0.57138
0.515048
0.458674
0.402465
0.346731
0.291981
0.239147
0.190097
0.148899
0.123922
0.125459
0.152804
0.195438
0.245517
0.299299
0.355066
0.411963
0.469536
0.527534
0.585798
0.644222
0.702721
0.761229
0.819696
0.878076
0.936326
0.994388
1.05219
1.10959
1.16643
1.22237
1.27722
1.32964
1.38273
1.42763
0.0131421
0.0277339
0.0536261
0.0781496
0.101427
0.123568
0.144773
0.165246
0.185199
0.204864
0.224476
0.244253
0.264371
0.284966
0.306129
0.327919
0.350369
0.373492
0.397286
0.421739
0.446826
0.47251
0.498751
0.525491
0.552666
0.580194
0.607986
0.635935
0.663935
0.691868
0.719627
0.74711
0.774243
0.800979
0.827311
0.853252
0.878832
0.904096
0.929114
0.953999
0.978898
1.00397
1.02927
1.05467
1.08008
1.10547
1.13086
1.15623
1.18158
1.20691
1.23224
1.25751
1.28275
1.30793
1.33305
1.35807
1.38301
1.40782
1.43249
1.45699
1.48132
1.50543
1.52933
1.55296
1.5763
1.59934
1.62203
1.64436
1.66629
1.68779
1.70884
1.7294
1.74945
1.76894
1.78785
1.80614
1.82378
1.84076
1.85702
1.87253
1.88729
1.90123
1.91434
1.92659
1.93795
1.94838
1.95788
1.96639
1.97391
1.9804
1.98585
1.99024
1.99354
1.99573
1.99679
1.9967
1.99542
1.99293
1.98921
1.98423
1.97797
1.97044
1.9616
1.95146
1.93999
1.92719
1.91305
1.89758
1.88075
1.86258
1.84305
1.82217
1.79995
1.77638
1.75147
1.72524
1.69768
1.66881
1.63863
1.60717
1.57444
1.54046
1.50524
1.4688
1.43117
1.39236
1.35242
1.31135
1.2692
1.226
1.18178
1.13657
1.09041
1.04333
0.995396
0.94664
0.897116
0.846879
0.795989
0.744514
0.692532
0.640132
0.587422
0.534538
0.481657
0.429026
0.377005
0.326152
0.277395
0.232353
0.193944
0.167115
0.158146
0.170083
0.199321
0.239673
0.286509
0.337138
0.390071
0.444462
0.499801
0.555771
0.612165
0.668854
0.725749
0.782781
0.839892
0.897028
0.954143
1.0112
1.06815
1.12495
1.18153
1.23777
1.29354
1.34859
1.40285
1.45539
1.50946
1.55725
0.0205537
0.057371
0.0851295
0.110278
0.134108
0.156876
0.178777
0.199974
0.220618
0.240875
0.260919
0.28092
0.301029
0.321366
0.342025
0.363064
0.384516
0.406393
0.428689
0.451381
0.474434
0.497802
0.521429
0.545249
0.56919
0.593174
0.617122
0.640955
0.6646
0.687997
0.711097
0.73387
0.756309
0.778428
0.80026
0.821849
0.843244
0.864503
0.885689
0.90688
0.92816
0.949607
0.971249
0.993064
1.01501
1.03705
1.05918
1.08138
1.10363
1.12592
1.14825
1.1706
1.19295
1.21528
1.23758
1.25985
1.28204
1.30415
1.32615
1.34802
1.36973
1.39127
1.41261
1.43372
1.45458
1.47515
1.49541
1.51534
1.53489
1.55405
1.57278
1.59106
1.60885
1.62612
1.64285
1.65899
1.67453
1.68943
1.70366
1.71719
1.72999
1.74202
1.75328
1.76371
1.7733
1.78202
1.78985
1.79675
1.8027
1.80768
1.81167
1.81464
1.81657
1.81744
1.81723
1.81591
1.81346
1.80985
1.80506
1.79908
1.7919
1.78349
1.77385
1.76297
1.75084
1.73746
1.7228
1.70687
1.68967
1.67119
1.65143
1.6304
1.60808
1.5845
1.55965
1.53356
1.5062
1.47761
1.44779
1.41676
1.38453
1.35111
1.31655
1.28084
1.24401
1.20609
1.1671
1.12709
1.08606
1.04408
1.00118
0.957383
0.912746
0.86732
0.821161
0.774335
0.726917
0.678995
0.630674
0.582083
0.53339
0.484811
0.436646
0.389321
0.343474
0.300088
0.26071
0.227763
0.204701
0.195359
0.201895
0.223099
0.255467
0.295433
0.340376
0.388599
0.439023
0.490964
0.543971
0.597738
0.65205
0.706757
0.761747
0.816945
0.872296
0.927758
0.983291
1.03886
1.09441
1.14994
1.20538
1.26071
1.31586
1.37075
1.42527
1.47924
1.53271
1.58504
1.63952
1.68853
0.0510221
0.0924793
0.120056
0.144524
0.167804
0.190224
0.211949
0.233076
0.253692
0.273891
0.293785
0.313488
0.333112
0.352748
0.37247
0.392325
0.41234
0.432519
0.452854
0.473315
0.493868
0.514465
0.535055
0.55558
0.575985
0.596213
0.616218
0.635956
0.6554
0.674531
0.693349
0.711867
0.730112
0.748123
0.765949
0.783644
0.801262
0.818856
0.836482
0.854193
0.872042
0.89007
0.908301
0.926729
0.945338
0.964107
0.983015
1.00204
1.02118
1.0404
1.05969
1.07903
1.09841
1.11781
1.1372
1.15657
1.17591
1.19518
1.21435
1.23343
1.25236
1.27114
1.28973
1.30812
1.32627
1.34416
1.36175
1.37904
1.39597
1.41254
1.42869
1.44442
1.4597
1.47447
1.48873
1.50245
1.5156
1.52814
1.54005
1.5513
1.56186
1.5717
1.58082
1.58914
1.59669
1.60342
1.6093
1.61431
1.61844
1.62165
1.62391
1.62523
1.62557
1.62489
1.62321
1.62048
1.61668
1.6118
1.60581
1.59869
1.59046
1.58109
1.57057
1.55887
1.54602
1.53199
1.51677
1.50037
1.48278
1.46401
1.44403
1.42287
1.40053
1.37701
1.3523
1.32643
1.2994
1.27124
1.24193
1.21151
1.17999
1.14739
1.11373
1.07903
1.04333
1.00665
0.969023
0.93049
0.891098
0.850895
0.809934
0.768279
0.725997
0.68318
0.639931
0.59638
0.552694
0.509085
0.465831
0.42332
0.382085
0.342893
0.306845
0.275511
0.251
0.235776
0.231976
0.2404
0.260066
0.288846
0.324439
0.36494
0.408948
0.455482
0.50386
0.553604
0.604371
0.655911
0.70804
0.760616
0.813533
0.866707
0.920076
0.97359
1.02722
1.08094
1.13471
1.18852
1.24233
1.29614
1.34989
1.40356
1.4571
1.51046
1.56356
1.61629
1.66878
1.72056
1.77498
1.82419
0.0850869
0.130101
0.156951
0.180131
0.202173
0.22354
0.244386
0.264768
0.284712
0.304252
0.323438
0.342334
0.361002
0.379504
0.397886
0.416178
0.434398
0.452544
0.470604
0.488554
0.506361
0.523988
0.541398
0.558554
0.575422
0.591975
0.608194
0.624072
0.639612
0.654827
0.669745
0.684401
0.698839
0.71311
0.727265
0.741361
0.755447
0.769574
0.783787
0.798127
0.812632
0.827327
0.84223
0.857342
0.872653
0.888148
0.903811
0.919623
0.935564
0.951618
0.967764
0.983983
1.00025
1.01656
1.03287
1.04919
1.06546
1.08168
1.09782
1.11387
1.12978
1.14555
1.16114
1.17653
1.1917
1.20662
1.22125
1.23559
1.2496
1.26324
1.27651
1.28936
1.30178
1.31374
1.3252
1.33615
1.34657
1.35642
1.36566
1.3743
1.38229
1.38962
1.39626
1.40218
1.40735
1.41178
1.41541
1.41825
1.42026
1.42142
1.42171
1.42111
1.41961
1.41718
1.41381
1.40947
1.40415
1.39784
1.3905
1.38215
1.37275
1.3623
1.35081
1.33825
1.32462
1.30991
1.29413
1.27727
1.25932
1.24028
1.22017
1.19898
1.17671
1.15338
1.12899
1.10355
1.07707
1.04957
1.02107
0.991587
0.961147
0.929773
0.897495
0.864351
0.830377
0.795623
0.760143
0.724005
0.687287
0.650085
0.612513
0.574711
0.536852
0.499164
0.46194
0.425574
0.390591
0.357694
0.327827
0.302213
0.282342
0.269809
0.26596
0.271441
0.285955
0.308429
0.337438
0.371584
0.409684
0.450813
0.494269
0.539528
0.586197
0.633977
0.682638
0.731999
0.781921
0.832286
0.883006
0.934005
0.985225
1.03662
1.08815
1.13977
1.19148
1.24327
1.29509
1.34697
1.39886
1.45076
1.50264
1.55448
1.60625
1.6579
1.70942
1.76073
1.81206
1.86298
1.91691
1.96562
0.120165
0.168531
0.194533
0.216177
0.236605
0.256459
0.275923
0.295034
0.31378
0.332151
0.35015
0.367788
0.385093
0.402089
0.418797
0.435233
0.451401
0.467298
0.482912
0.498223
0.51321
0.52785
0.542121
0.556006
0.569493
0.582582
0.595275
0.607587
0.619544
0.631178
0.642531
0.65365
0.664587
0.675393
0.686122
0.696826
0.707552
0.718345
0.729244
0.740283
0.751488
0.762881
0.774474
0.786271
0.798264
0.810442
0.82279
0.835292
0.847929
0.860681
0.873529
0.886452
0.899427
0.912436
0.925454
0.938459
0.951429
0.964341
0.977172
0.989897
1.00249
1.01494
1.0272
1.03927
1.05111
1.0627
1.07401
1.08503
1.09573
1.10608
1.11607
1.12566
1.13483
1.14357
1.15184
1.15963
1.16692
1.17367
1.17988
1.18552
1.19056
1.19499
1.19879
1.20193
1.20441
1.20619
1.20726
1.2076
1.20718
1.20601
1.20405
1.2013
1.19772
1.19331
1.18805
1.18193
1.17493
1.16703
1.15824
1.14852
1.13788
1.12632
1.11382
1.10038
1.08598
1.07066
1.05438
1.03714
1.01896
0.999839
0.979777
0.958786
0.936874
0.914053
0.89034
0.865752
0.840312
0.814047
0.786989
0.759175
0.73065
0.701463
0.671679
0.64137
0.610628
0.579566
0.548319
0.51706
0.48601
0.455443
0.425714
0.397268
0.370672
0.34664
0.326037
0.309858
0.299125
0.294735
0.297251
0.306761
0.322878
0.344879
0.371893
0.403058
0.437611
0.47491
0.514437
0.555782
0.598616
0.642676
0.687752
0.733671
0.780294
0.827501
0.875195
0.923292
0.971721
1.02042
1.06934
1.11845
1.1677
1.21706
1.26652
1.31605
1.36564
1.41529
1.46499
1.51474
1.56453
1.61434
1.66417
1.714
1.76383
1.81361
1.86338
1.91309
1.96303
2.01283
2.06589
2.11359
0.154841
0.206529
0.231726
0.251777
0.270422
0.288499
0.306248
0.323712
0.340869
0.357677
0.374103
0.390127
0.405741
0.42094
0.435726
0.450101
0.464062
0.477604
0.490717
0.503387
0.515604
0.527355
0.538635
0.549444
0.559786
0.569676
0.579134
0.588189
0.596878
0.605245
0.613338
0.621206
0.628903
0.63648
0.643989
0.651477
0.658989
0.666562
0.674233
0.682028
0.689972
0.698078
0.706357
0.714811
0.723436
0.732222
0.741158
0.750228
0.759413
0.768696
0.778054
0.787468
0.796916
0.806376
0.815824
0.825239
0.834597
0.843877
0.853054
0.862105
0.871009
0.879744
0.888285
0.896611
0.9047
0.912532
0.920085
0.927338
0.934271
0.940866
0.947101
0.952959
0.95842
0.963466
0.96808
0.972244
0.975941
0.979154
0.981867
0.984062
0.985725
0.986839
0.98739
0.987362
0.98674
0.98551
0.983658
0.981168
0.978028
0.974223
0.969741
0.964569
0.958696
0.952109
0.944794
0.936742
0.927942
0.918386
0.908067
0.89698
0.88512
0.872486
0.859076
0.844889
0.829928
0.814197
0.7977
0.780447
0.762447
0.743716
0.724271
0.704134
0.683334
0.661903
0.63988
0.617316
0.594271
0.570816
0.54704
0.523049
0.498973
0.474972
0.451242
0.428029
0.405632
0.384417
0.36483
0.347401
0.332732
0.321475
0.31427
0.311669
0.314044
0.321531
0.334019
0.351187
0.372584
0.397699
0.426028
0.457109
0.490534
0.525956
0.563083
0.601671
0.641517
0.682448
0.724318
0.767004
0.810398
0.854407
0.898952
0.943956
0.989359
1.0351
1.08113
1.12742
1.1739
1.22056
1.26736
1.31427
1.36128
1.40837
1.45553
1.50275
1.55001
1.59733
1.64471
1.69213
1.73962
1.78717
1.83476
1.88241
1.93011
1.97787
2.0257
2.07364
2.12198
2.17039
2.22223
2.26857
0.188113
0.243162
0.267665
0.286172
0.302992
0.319166
0.335004
0.350582
0.365875
0.380832
0.395403
0.409545
0.423229
0.436434
0.449147
0.461355
0.473052
0.484226
0.494869
0.504978
0.514547
0.523578
0.532075
0.540051
0.54752
0.554505
0.561038
0.567156
0.572898
0.578311
0.583444
0.588345
0.593066
0.597654
0.602156
0.606615
0.61107
0.615554
0.620098
0.624725
0.629453
0.634296
0.63926
0.644348
0.649555
0.654872
0.660289
0.665791
0.671363
0.676985
0.682637
0.688298
0.693949
0.699564
0.705123
0.710604
0.715985
0.721242
0.726357
0.731306
0.73607
0.740627
0.744959
0.749046
0.752871
0.756418
0.759669
0.762607
0.765221
0.767494
0.769413
0.770966
0.77214
0.772925
0.773307
0.773278
0.772826
0.771943
0.770619
0.768843
0.766608
0.763906
0.760727
0.757064
0.752909
0.748254
0.743091
0.737414
0.731214
0.724484
0.71722
0.709414
0.701066
0.692164
0.682708
0.672695
0.662122
0.650991
0.639305
0.627071
0.614295
0.600987
0.587164
0.572841
0.558041
0.542792
0.527126
0.511084
0.494718
0.478087
0.461265
0.444345
0.427434
0.410667
0.394203
0.378235
0.362994
0.348754
0.335831
0.324577
0.315382
0.308643
0.304746
0.304024
0.306722
0.312971
0.322776
0.336032
0.352547
0.372069
0.394319
0.419021
0.445907
0.474731
0.505275
0.537351
0.570795
0.605462
0.641229
0.677987
0.715638
0.754098
0.79329
0.833144
0.873599
0.914595
0.956081
0.998008
1.04033
1.083
1.12599
1.16925
1.21276
1.25646
1.30036
1.3444
1.38857
1.43284
1.47722
1.52166
1.56618
1.61075
1.65537
1.70004
1.74476
1.78954
1.83438
1.8793
1.92429
1.96937
2.01455
2.05983
2.10523
2.15078
2.19651
2.24248
2.28902
2.33578
2.3861
2.43078
0.219267
0.277741
0.301697
0.318761
0.333792
0.348027
0.361859
0.375402
0.388655
0.401573
0.414105
0.426199
0.437815
0.448914
0.459472
0.469471
0.478899
0.487749
0.496015
0.503697
0.510801
0.517331
0.5233
0.528724
0.533626
0.538034
0.541978
0.545498
0.548633
0.551427
0.553925
0.556171
0.558209
0.560083
0.561832
0.563492
0.565096
0.566673
0.568245
0.569831
0.571446
0.5731
0.574798
0.576539
0.578318
0.580125
0.581952
0.583784
0.585604
0.587395
0.589137
0.590808
0.592389
0.593858
0.595193
0.596375
0.597383
0.598195
0.598793
0.599157
0.59927
0.599115
0.598677
0.597941
0.596896
0.595529
0.59383
0.59179
0.589402
0.58666
0.583557
0.580089
0.576252
0.572045
0.567463
0.562509
0.55718
0.551476
0.5454
0.538952
0.532134
0.524948
0.517397
0.509486
0.501218
0.492599
0.483634
0.47433
0.464693
0.454733
0.444462
0.433893
0.423043
0.41193
0.400574
0.389008
0.377263
0.365383
0.353419
0.341435
0.329507
0.317723
0.306196
0.295054
0.284453
0.274573
0.265622
0.257833
0.251463
0.246772
0.244023
0.24345
0.245241
0.24952
0.25634
0.26568
0.277454
0.291536
0.307768
0.325982
0.346012
0.367699
0.3909
0.415483
0.441336
0.468358
0.496459
0.525565
0.555609
0.58653
0.618274
0.650796
0.68405
0.717989
0.752573
0.787768
0.823538
0.859851
0.896676
0.933983
0.971742
1.00992
1.0485
1.08744
1.12672
1.16632
1.20621
1.24636
1.28674
1.32735
1.36814
1.4091
1.45021
1.49145
1.5328
1.57424
1.61577
1.65736
1.69902
1.74072
1.78248
1.82428
1.86612
1.90802
1.94997
1.99198
2.03408
2.07627
2.11857
2.161
2.20356
2.24629
2.28922
2.33236
2.3758
2.41961
2.46414
2.50901
2.55754
2.60033
0.24784
0.309807
0.333368
0.34911
0.362423
0.374732
0.386524
0.397967
0.409093
0.419873
0.430259
0.4402
0.449652
0.458578
0.466951
0.474753
0.481972
0.4886
0.494636
0.500081
0.504943
0.50923
0.512957
0.516143
0.518812
0.520989
0.522705
0.523994
0.524891
0.525436
0.525664
0.525615
0.525323
0.524822
0.524144
0.523319
0.52237
0.521319
0.520183
0.518975
0.517705
0.516376
0.514987
0.513537
0.512017
0.510419
0.508728
0.506932
0.505013
0.502951
0.500727
0.498321
0.495714
0.492884
0.489812
0.48648
0.482864
0.478948
0.474713
0.470142
0.46522
0.459934
0.454272
0.448225
0.441783
0.434941
0.427694
0.42004
0.411976
0.403501
0.394619
0.385332
0.375643
0.365559
0.355085
0.344232
0.333006
0.32142
0.309485
0.297217
0.284633
0.27175
0.258593
0.245187
0.23157
0.217781
0.203876
0.189924
0.176017
0.162281
0.148892
0.136094
0.124223
0.113747
0.105276
0.0995333
0.0972248
0.0988143
0.104339
0.113429
0.125497
0.13995
0.156287
0.174125
0.193185
0.213267
0.234226
0.255959
0.278391
0.301464
0.325139
0.349383
0.374174
0.399491
0.425323
0.451654
0.478478
0.505785
0.533568
0.56182
0.590536
0.61971
0.649336
0.679407
0.709917
0.74086
0.772227
0.804016
0.836214
0.868813
0.901805
0.935186
0.96894
1.00305
1.03752
1.07232
1.10743
1.14287
1.1786
1.21461
1.25089
1.28742
1.32419
1.36118
1.39838
1.43577
1.47334
1.51107
1.54894
1.58694
1.62507
1.66329
1.7016
1.73999
1.77845
1.81696
1.85553
1.89414
1.93279
1.97147
2.0102
2.04897
2.08779
2.12667
2.16562
2.20465
2.24378
2.28304
2.32243
2.362
2.40176
2.44175
2.482
2.52256
2.56353
2.60499
2.64727
2.69003
2.73653
2.77721
0.273565
0.339116
0.362432
0.376975
0.388652
0.399084
0.40885
0.418171
0.427113
0.435677
0.443835
0.451554
0.458798
0.465538
0.471751
0.477421
0.482533
0.487084
0.491071
0.494496
0.497368
0.499694
0.501488
0.50277
0.503558
0.503875
0.503746
0.503201
0.502268
0.500976
0.499355
0.497435
0.495242
0.492804
0.490142
0.487279
0.48423
0.48101
0.477627
0.474089
0.470399
0.466556
0.462558
0.458397
0.454065
0.449547
0.444834
0.43991
0.43476
0.429368
0.423716
0.417789
0.411571
0.405048
0.398203
0.391021
0.383487
0.375586
0.367307
0.358641
0.349583
0.340125
0.330269
0.320015
0.309367
0.298333
0.286924
0.275155
0.263045
0.250617
0.237902
0.224939
0.211777
0.198476
0.185116
0.171803
0.158679
0.145931
0.133823
0.122705
0.113047
0.10544
0.100545
0.0989599
0.10103
0.106719
0.115655
0.127299
0.141113
0.156641
0.173526
0.191505
0.210386
0.230025
0.250319
0.271188
0.292572
0.314426
0.336715
0.35941
0.382491
0.405939
0.429739
0.45388
0.478352
0.503149
0.528263
0.553689
0.579423
0.605463
0.631804
0.658444
0.685383
0.712619
0.740149
0.767972
0.796087
0.824492
0.853184
0.882164
0.911429
0.940975
0.970803
1.00091
1.03129
1.06193
1.09285
1.12403
1.15546
1.18715
1.21908
1.25125
1.28365
1.31629
1.34913
1.38219
1.41544
1.44888
1.48251
1.5163
1.55026
1.58437
1.61863
1.65301
1.68752
1.72215
1.75687
1.79168
1.82658
1.86155
1.89659
1.93169
1.96683
2.00203
2.03725
2.07251
2.1078
2.14313
2.17848
2.21388
2.24931
2.2848
2.32034
2.35596
2.39166
2.42747
2.46342
2.49953
2.53581
2.57231
2.60905
2.64609
2.68349
2.72128
2.75957
2.79847
2.83832
2.87875
2.92297
2.96137
0.296578
0.365715
0.388902
0.402348
0.412462
0.421041
0.428759
0.435906
0.4426
0.448884
0.454763
0.460227
0.465258
0.469838
0.47395
0.47758
0.480719
0.483359
0.485497
0.487137
0.488281
0.488936
0.489113
0.488827
0.488091
0.486926
0.485353
0.483393
0.481071
0.478409
0.475431
0.47216
0.468616
0.46482
0.460789
0.456542
0.452089
0.447444
0.442613
0.437603
0.432418
0.427062
0.421537
0.415843
0.409981
0.403955
0.397767
0.391422
0.384923
0.37828
0.371503
0.364608
0.357615
0.350547
0.343426
0.336286
0.329162
0.322098
0.315146
0.308372
0.301843
0.295641
0.289854
0.284579
0.279921
0.275987
0.272884
0.270719
0.269595
0.269601
0.270813
0.273287
0.27706
0.282148
0.288545
0.296227
0.305151
0.315267
0.326512
0.338819
0.352119
0.366345
0.381428
0.397306
0.413921
0.431218
0.449145
0.467656
0.486714
0.506282
0.526326
0.546816
0.567728
0.589037
0.610723
0.632769
0.655155
0.677868
0.700895
0.724224
0.747844
0.771745
0.795918
0.820355
0.84505
0.869996
0.895186
0.920615
0.946279
0.972174
0.998295
1.02464
1.0512
1.07798
1.10496
1.13216
1.15957
1.18717
1.21498
1.24297
1.27117
1.29955
1.32812
1.35687
1.38579
1.4149
1.44416
1.4736
1.50319
1.53294
1.56285
1.59289
1.62308
1.65338
1.68383
1.71438
1.74505
1.77583
1.8067
1.83767
1.86872
1.89986
1.93106
1.96234
1.99367
2.02505
2.05649
2.08796
2.11948
2.15102
2.1826
2.2142
2.24583
2.27747
2.30914
2.34083
2.37254
2.40428
2.43606
2.46787
2.49973
2.53167
2.56368
2.59578
2.628
2.66036
2.69288
2.7256
2.75856
2.79178
2.82531
2.8592
2.89352
2.92833
2.96376
2.9999
3.03712
3.07501
3.11672
3.15267
0.317871
0.390638
0.413743
0.426081
0.434555
0.441162
0.446692
0.451515
0.455816
0.459688
0.463176
0.4663
0.469065
0.471464
0.473491
0.475134
0.476385
0.477233
0.477676
0.477712
0.47734
0.476565
0.475394
0.473841
0.471915
0.469634
0.467015
0.46408
0.460851
0.45735
0.453603
0.449633
0.445466
0.441125
0.436637
0.432022
0.427304
0.422511
0.417672
0.41282
0.407984
0.403198
0.398501
0.393932
0.389542
0.385384
0.381511
0.377984
0.374865
0.372222
0.370122
0.368636
0.367837
0.367793
0.368565
0.370213
0.372789
0.376339
0.380898
0.386492
0.393136
0.400833
0.409578
0.419351
0.430126
0.441868
0.454539
0.468095
0.482486
0.497664
0.51358
0.53018
0.547418
0.565247
0.583618
0.602491
0.621824
0.64158
0.661722
0.682218
0.70304
0.724159
0.745552
0.767197
0.789074
0.811165
0.833455
0.855931
0.878583
0.9014
0.924371
0.947488
0.970745
0.994135
1.01765
1.0413
1.06507
1.08895
1.11297
1.13708
1.16131
1.18566
1.21011
1.23468
1.25936
1.28414
1.30903
1.33403
1.35913
1.38435
1.40967
1.43508
1.46062
1.48625
1.51198
1.53781
1.56375
1.58979
1.61592
1.64215
1.66848
1.69488
1.72139
1.74798
1.77465
1.80141
1.82824
1.85515
1.88213
1.90918
1.93629
1.96346
1.99069
2.01797
2.0453
2.07267
2.10007
2.12751
2.15499
2.18249
2.21002
2.23757
2.26512
2.2927
2.32028
2.34789
2.37549
2.4031
2.43071
2.45833
2.48595
2.51357
2.5412
2.56885
2.59651
2.62418
2.65189
2.67963
2.7074
2.73525
2.76315
2.79115
2.81925
2.84748
2.87586
2.90442
2.93318
2.9622
2.99149
3.02111
3.05112
3.08157
3.11253
3.14408
3.17635
3.20946
3.24374
3.27881
3.31771
3.351
0.337212
0.413343
0.436202
0.44727
0.453941
0.458416
0.461612
0.463989
0.465805
0.467209
0.46829
0.469096
0.46965
0.469956
0.470013
0.469814
0.469346
0.468597
0.467556
0.46622
0.464588
0.462661
0.460449
0.457962
0.455218
0.452243
0.449064
0.445713
0.442218
0.438618
0.43495
0.431265
0.427618
0.424072
0.420684
0.417521
0.414649
0.412147
0.410099
0.408597
0.407731
0.407591
0.408267
0.409843
0.412407
0.416034
0.420787
0.42672
0.433868
0.442258
0.451899
0.462784
0.474905
0.488234
0.502736
0.518365
0.535071
0.552794
0.571469
0.591036
0.611425
0.63257
0.654407
0.676869
0.699895
0.723426
0.747405
0.771776
0.796492
0.821502
0.846762
0.872233
0.897876