/*--------------------------------*- C++ -*----------------------------------*\
  =========                 |
  \\      /  F ield         | OpenFOAM: The Open Source CFD Toolbox
   \\    /   O peration     | Website:  https://openfoam.org
    \\  /    A nd           | Version:  13
     \\/     M anipulation  |
\*---------------------------------------------------------------------------*/
FoamFile
{
    format      ascii;
    class       volScalarField;
    location    "285";
    object      nut;
}
// * * * * * * * * * * * * * * * * * * * * * * * * * * * * * * * * * * * * * //

dimensions      [0 2 -1 0 0 0 0];

internalField   nonuniform List<scalar> 
12225
(
4.14749e-05
3.94081e-05
3.76217e-05
3.56091e-05
3.39951e-05
3.26394e-05
3.1741e-05
3.11191e-05
3.11176e-05
3.12841e-05
3.17276e-05
3.22795e-05
3.32539e-05
3.39989e-05
3.51073e-05
3.60941e-05
3.71326e-05
3.72805e-05
0.000332232
0.000216443
0.00018025
0.000158651
0.000147076
0.000139054
0.00013325
0.000131958
0.000129841
0.000130218
0.000129253
0.000129542
0.000128813
0.000128652
0.000128194
0.000127559
0.0001274
0.000126739
0.000676439
0.000451106
0.000355871
0.000309838
0.000275401
0.000251155
0.000231913
0.000217536
0.000202988
0.000192376
0.000182989
0.000175491
0.000169734
0.00016398
0.000160636
0.000155889
0.000154102
0.000150224
0.000834706
0.000684574
0.000571246
0.000498844
0.000448355
0.000411046
0.000380032
0.000355284
0.000333503
0.00031429
0.000298118
0.000281412
0.000270234
0.00025603
0.000248228
0.000236265
0.000230522
0.00022066
0.000861882
0.000802245
0.000741879
0.000675867
0.00062288
0.000580194
0.000544745
0.000513377
0.000488457
0.000463385
0.000444947
0.000423228
0.0004092
0.00039017
0.000379334
0.000362643
0.000354084
0.000339268
0.000855094
0.000840344
0.000822221
0.000786219
0.000750433
0.000715199
0.000684962
0.000655189
0.000631575
0.000606498
0.00058798
0.000566252
0.000551311
0.000532187
0.000519905
0.000502947
0.000492548
0.000476851
0.000852948
0.000850663
0.000844287
0.000832824
0.000817331
0.000796771
0.000777568
0.000756275
0.00073835
0.000718509
0.000702834
0.000684881
0.000671351
0.000655146
0.00064352
0.000628773
0.000618757
0.000604455
0.000851933
0.000851813
0.000850174
0.000847444
0.00084142
0.000833732
0.000824867
0.000813285
0.000802625
0.000790206
0.000779396
0.000767163
0.000757008
0.000745327
0.000736056
0.000725027
0.000716642
0.000705528
0.000851752
0.000851546
0.000851029
0.000850356
0.000848894
0.000846175
0.000843068
0.000838296
0.000833406
0.000827276
0.000821144
0.000814655
0.000808281
0.000801344
0.000795049
0.000788186
0.000781929
0.000774993
0.000851769
0.000851391
0.000851045
0.000850633
0.000850258
0.000849371
0.000848427
0.000846792
0.000844983
0.000842538
0.00083993
0.000836792
0.000833779
0.000830124
0.000826925
0.000822878
0.000819825
0.0008152
0.000851787
0.000851358
0.000851013
0.000850611
0.000850333
0.000849905
0.000849534
0.000848936
0.000848317
0.000847408
0.000846482
0.000845193
0.000844006
0.000842366
0.000841007
0.00083904
0.000837645
0.000835359
0.000851789
0.000851359
0.000850996
0.000850604
0.000850293
0.000849938
0.000849648
0.000849282
0.00084896
0.000848511
0.000848108
0.000847519
0.000847011
0.000846259
0.000845657
0.000844736
0.000844075
0.000842992
0.000851786
0.000851362
0.000850986
0.000850603
0.000850269
0.000849925
0.00084963
0.000849313
0.000849044
0.000848731
0.000848465
0.000848131
0.00084785
0.000847473
0.000847165
0.000846736
0.000846398
0.000845915
0.000851783
0.000851364
0.000850978
0.000850601
0.000850256
0.000849916
0.000849607
0.000849299
0.000849022
0.000848741
0.000848489
0.000848225
0.00084799
0.000847737
0.000847511
0.000847261
0.000847037
0.000846788
0.000851781
0.000851364
0.000850972
0.000850598
0.000850246
0.000849908
0.000849591
0.000849286
0.000849
0.000848723
0.000848463
0.000848211
0.000847975
0.000847745
0.000847528
0.000847316
0.000847115
0.00084692
0.00085178
0.000851363
0.000850969
0.000850594
0.000850239
0.000849901
0.00084958
0.000849274
0.000848984
0.000848707
0.000848443
0.000848191
0.000847951
0.000847721
0.000847502
0.000847292
0.000847092
0.0008469
0.000851779
0.000851362
0.000850967
0.000850591
0.000850234
0.000849894
0.000849572
0.000849265
0.000848973
0.000848694
0.000848428
0.000848174
0.000847932
0.000847701
0.00084748
0.000847268
0.000847066
0.000846873
0.000851779
0.000851362
0.000850965
0.000850588
0.00085023
0.00084989
0.000849567
0.000849258
0.000848965
0.000848685
0.000848418
0.000848163
0.000847919
0.000847686
0.000847464
0.000847251
0.000847047
0.000846853
0.000851779
0.000851362
0.000850965
0.000850588
0.000850229
0.000849889
0.000849565
0.000849256
0.000848962
0.000848681
0.000848413
0.000848157
0.000847913
0.000847679
0.000847456
0.000847242
0.000847038
0.000846842
0.000851779
0.000851362
0.000850965
0.000850589
0.000850231
0.000849891
0.000849567
0.000849259
0.000848965
0.000848684
0.000848417
0.000848161
0.000847916
0.000847683
0.000847459
0.000847245
0.00084704
0.000846843
0.000851779
0.000851363
0.000850967
0.000850592
0.000850235
0.000849896
0.000849573
0.000849266
0.000848972
0.000848693
0.000848424
0.000848168
0.000847919
0.000847683
0.000847451
0.000847232
0.000847013
0.000846807
0.000851778
0.000851366
0.000850968
0.000850599
0.00085024
0.000849907
0.00084958
0.000849275
0.000848966
0.000848673
0.000848368
0.000848076
0.000847762
0.000847462
0.000847131
0.000846821
0.000846468
0.000846148
0.000851779
0.000851373
0.000850973
0.000850615
0.000850242
0.000849893
0.000849483
0.000849062
0.000848541
0.000847994
0.00084732
0.000846627
0.000845791
0.000844966
0.000843982
0.000843059
0.000841947
0.000840969
0.000851808
0.000851407
0.000850978
0.000850548
0.000849878
0.000848986
0.000847632
0.000846016
0.000843944
0.000841677
0.000838995
0.000836252
0.000833148
0.000830139
0.00082678
0.00082369
0.000820184
0.00081717
0.000852173
0.0008514
0.000850253
0.00084826
0.000844557
0.000839355
0.000832763
0.000825817
0.000817929
0.000809987
0.000801574
0.00079356
0.000785238
0.000777591
0.000769605
0.000762543
0.000754947
0.000748605
0.000854343
0.000847675
0.000840123
0.000827216
0.00080873
0.000789595
0.000769851
0.000751246
0.000733083
0.000716636
0.000700645
0.000686467
0.0006725
0.000660329
0.000648029
0.000637587
0.000626598
0.000617665
0.000855871
0.000818057
0.000776099
0.000726623
0.000684644
0.000649581
0.000618154
0.000591722
0.000568074
0.000548022
0.000529407
0.00051372
0.000498505
0.000485785
0.000472994
0.000462515
0.000451456
0.000442653
0.000807795
0.000667319
0.000570968
0.00051009
0.000466
0.000431476
0.000404381
0.000382787
0.000364433
0.000349352
0.000336153
0.000325335
0.000314752
0.000306494
0.000298219
0.000291626
0.00028455
0.000279196
0.000500827
0.000349312
0.000293564
0.000260335
0.000237512
0.000221979
0.000212327
0.000204725
0.000198997
0.000195509
0.000192598
0.000190699
0.000188874
0.000187705
0.000186403
0.000185691
0.000184753
0.00018433
7.26996e-05
7.02628e-05
6.80492e-05
6.57499e-05
6.35638e-05
6.14764e-05
5.97041e-05
5.81778e-05
5.69314e-05
5.59215e-05
5.51919e-05
5.46262e-05
5.43109e-05
5.40785e-05
5.40739e-05
5.41274e-05
5.42505e-05
5.44873e-05
1.7124e-07
4.60934e-06
8.62511e-06
1.22108e-05
1.57309e-05
1.96996e-05
2.43218e-05
2.98244e-05
3.63141e-05
4.37421e-05
5.19631e-05
6.07914e-05
7.00493e-05
7.95752e-05
8.92292e-05
9.88795e-05
0.000108398
0.00011765
0.000126481
0.000134716
0.000142143
0.000148515
0.000153533
0.000156853
0.000158059
0.000156676
0.000152101
0.000143588
0.000130111
2.6108e-05
2.68136e-05
2.84315e-05
3.06067e-05
3.19474e-05
3.34217e-05
3.64563e-05
4.03792e-05
4.58848e-05
0.000230323
0.000219138
0.000218117
4.48914e-05
4.87718e-05
4.89481e-05
5.0312e-05
5.13966e-05
5.25079e-05
5.36322e-05
5.47397e-05
5.58539e-05
5.69598e-05
5.80656e-05
5.91665e-05
6.02651e-05
6.136e-05
6.24518e-05
6.35402e-05
6.46253e-05
6.57068e-05
6.67848e-05
6.78589e-05
6.89291e-05
6.9995e-05
7.10566e-05
7.21133e-05
7.31649e-05
7.4211e-05
7.52513e-05
7.62852e-05
7.73125e-05
7.83325e-05
7.9345e-05
8.03491e-05
8.13448e-05
8.2331e-05
8.33078e-05
8.4274e-05
8.52296e-05
8.61735e-05
8.71058e-05
8.80253e-05
8.89319e-05
8.98246e-05
9.07033e-05
9.15668e-05
9.24151e-05
9.3247e-05
9.40622e-05
9.48598e-05
9.56392e-05
9.63994e-05
9.71393e-05
9.78578e-05
9.85538e-05
9.92261e-05
9.98739e-05
0.000100497
0.000101099
0.000101685
0.000102245
0.000102786
0.000103303
0.000103798
0.000104271
0.000104721
0.000105147
0.000105551
0.00010593
0.000106285
0.000106616
0.000106923
0.000107205
0.000107462
0.000107694
0.000107901
0.000108083
0.000108239
0.00010837
0.000108476
0.000108556
0.000108611
0.00010864
0.000108644
0.000108623
0.000108576
0.000108504
0.000108407
0.000108284
0.000108139
0.000107972
0.000107777
0.000107555
0.000107307
0.000107041
0.000106756
0.000106443
0.000106109
0.000105753
0.000105375
0.000104975
0.000104555
0.000104115
0.000103655
0.000103176
0.000102678
0.000102161
0.000101627
0.000101075
0.000100507
9.99231e-05
9.93235e-05
9.87091e-05
9.80805e-05
9.74383e-05
9.67833e-05
9.61161e-05
9.54375e-05
9.47481e-05
9.40489e-05
9.33409e-05
9.26257e-05
9.19069e-05
9.12047e-05
9.06689e-05
9.02508e-05
8.98412e-05
8.94292e-05
8.90135e-05
8.85942e-05
8.81715e-05
8.77457e-05
8.73167e-05
8.68841e-05
8.64467e-05
8.60024e-05
8.55456e-05
8.50658e-05
8.4534e-05
8.38923e-05
8.19759e-05
8.83752e-07
2.46965e-05
5.60182e-05
7.76781e-05
9.14599e-05
0.000100855
0.000108601
0.00011626
0.000124582
0.000133797
0.000143857
0.000154586
0.000165775
0.000177223
0.000188747
0.000200175
0.000211327
0.000222003
0.000231941
0.000240792
0.00024808
0.00025317
0.000255234
0.000253247
0.00024606
0.000232605
0.00021229
0.00018559
0.00015461
0.00012318
0.000126037
0.000133336
0.000142659
0.000153989
0.000169153
0.000189858
0.00021534
0.000247358
0.000295149
0.000275134
0.000275437
0.00025318
0.00026498
0.000269879
0.000277321
0.000284743
0.000292526
0.000300359
0.000308386
0.000316499
0.000324731
0.000333045
0.000341449
0.000349933
0.000358497
0.000367141
0.000375864
0.000384668
0.000393552
0.000402518
0.000411568
0.000420701
0.000429918
0.00043922
0.000448605
0.000458074
0.000467625
0.000477256
0.000486966
0.000496752
0.000506611
0.00051654
0.000526536
0.000536594
0.000546709
0.000556878
0.000567095
0.000577354
0.00058765
0.000597978
0.00060833
0.000618702
0.000629087
0.000639479
0.000649871
0.000660259
0.000670635
0.000680996
0.000691335
0.000701649
0.000711931
0.000722171
0.000732357
0.000742468
0.00075247
0.000762303
0.000771862
0.000780967
0.00078931
0.000797635
0.000805801
0.000813841
0.00082174
0.000829497
0.000837104
0.000844557
0.000851849
0.000858975
0.000865931
0.000872711
0.000879311
0.000885725
0.000891951
0.000897982
0.000903816
0.000909448
0.000914876
0.000920094
0.0009251
0.000929892
0.000934466
0.00093882
0.000942951
0.000946858
0.000950538
0.000953991
0.000957218
0.000960217
0.000962976
0.000965528
0.00096791
0.000969969
0.000971659
0.000973163
0.000974603
0.000975737
0.000976626
0.000977285
0.000977713
0.000977914
0.000977891
0.000977644
0.000977178
0.000976496
0.000975603
0.000974501
0.000973194
0.000971687
0.000969984
0.000968089
0.000966007
0.000963743
0.000961302
0.000958691
0.000955913
0.000952975
0.000949882
0.00094664
0.000943252
0.000939718
0.000936026
0.000932104
0.000927578
0.00092126
0.000913809
0.00090598
0.000897988
0.0008899
0.000881742
0.000873532
0.000865276
0.00085698
0.000848644
0.000840262
0.00083181
0.000823235
0.000814389
0.000805037
0.000793691
0.000763587
1.90174e-06
4.15643e-05
9.01449e-05
0.00012688
0.000153374
0.000172581
0.000187267
0.000199572
0.000210939
0.000222209
0.000233773
0.000245737
0.00025805
0.000270593
0.000283217
0.000295761
0.000308047
0.000319914
0.000331117
0.000341317
0.000350052
0.000356707
0.000360571
0.000360863
0.000356883
0.000348325
0.000335692
0.000320734
0.000306818
0.000299454
0.00030876
0.00032403
0.000342768
0.000364667
0.000389696
0.000416812
0.000443769
0.00046824
0.000486318
0.000492497
0.000501538
0.000510102
0.000526188
0.000541206
0.000556933
0.00057283
0.000588982
0.000605294
0.000621789
0.000638436
0.000655237
0.000672182
0.00068927
0.000706498
0.000723868
0.00074138
0.000759035
0.000776834
0.000794777
0.000812865
0.000831099
0.000849479
0.000868006
0.000886678
0.000905492
0.000924445
0.000943534
0.000962755
0.000982101
0.00100157
0.00102115
0.00104083
0.00106062
0.00108049
0.00110044
0.00112046
0.00114055
0.00116068
0.00118084
0.00120104
0.00122125
0.00124145
0.00126165
0.00128183
0.00130197
0.00132206
0.00134208
0.00136203
0.00138189
0.00140164
0.00142126
0.00144073
0.00146002
0.00147909
0.00149788
0.00151633
0.00153436
0.00155188
0.00156895
0.00158579
0.00160236
0.00161866
0.00163465
0.00165034
0.00166572
0.00168077
0.00169547
0.00170983
0.00172382
0.00173744
0.00175068
0.00176354
0.00177599
0.00178803
0.00179966
0.00181087
0.00182164
0.00183198
0.00184187
0.00185132
0.00186031
0.00186884
0.00187691
0.0018845
0.00189163
0.00189828
0.00190445
0.00191016
0.00191538
0.00192016
0.00192456
0.00192837
0.00193142
0.00193409
0.00193648
0.00193833
0.00193967
0.00194055
0.00194094
0.00194087
0.00194034
0.00193936
0.00193792
0.00193604
0.00193373
0.00193099
0.00192782
0.00192425
0.00192028
0.00191591
0.00191116
0.00190604
0.00190056
0.00189473
0.00188856
0.00188206
0.00187524
0.00186812
0.00186071
0.001853
0.00184498
0.00183654
0.00182732
0.0018164
0.00180416
0.00179123
0.00177793
0.00176438
0.00175064
0.00173676
0.00172274
0.00170862
0.00169439
0.00168003
0.00166551
0.00165071
0.00163537
0.00161878
0.00159815
0.00155397
3.06973e-06
5.43828e-05
0.000116263
0.000164337
0.000199676
0.000225887
0.00024608
0.000262647
0.000277282
0.000291077
0.000304655
0.000318305
0.000332114
0.000346055
0.000360049
0.000373997
0.000387791
0.000401272
0.000414278
0.00042663
0.000438104
0.00044844
0.000457291
0.000464304
0.000469231
0.000472097
0.00047344
0.000474556
0.000477599
0.000485253
0.00049932
0.000517146
0.00053748
0.0005598
0.000583559
0.000607862
0.000631605
0.000653846
0.000673981
0.000692448
0.000711318
0.000731558
0.000753682
0.000775967
0.000798521
0.000821274
0.000844238
0.000867397
0.000890751
0.000914293
0.000938022
0.000961936
0.000986036
0.00101032
0.00103479
0.00105945
0.00108431
0.00110935
0.00113459
0.00116003
0.00118566
0.00121147
0.00123748
0.00126368
0.00129005
0.0013166
0.00134332
0.0013702
0.00139724
0.00142442
0.00145173
0.00147917
0.00150671
0.00153436
0.00156209
0.00158989
0.00161775
0.00164565
0.00167358
0.00170151
0.00172943
0.00175733
0.00178519
0.00181298
0.00184069
0.00186831
0.0018958
0.00192316
0.00195035
0.00197735
0.00200414
0.00203069
0.00205695
0.0020829
0.00210848
0.00213364
0.00215832
0.00218254
0.00220635
0.00222979
0.00225286
0.00227553
0.00229779
0.00231963
0.00234102
0.00236195
0.00238241
0.00240238
0.00242184
0.00244078
0.0024592
0.00247707
0.00249439
0.00251114
0.00252732
0.0025429
0.00255789
0.00257228
0.00258604
0.00259919
0.0026117
0.00262358
0.00263481
0.0026454
0.00265533
0.0026646
0.00267322
0.00268118
0.00268848
0.00269522
0.00270144
0.00270668
0.002711
0.0027149
0.00271822
0.00272085
0.00272281
0.0027241
0.00272475
0.00272474
0.0027241
0.00272283
0.00272094
0.00271843
0.00271532
0.00271162
0.00270734
0.00270248
0.00269707
0.00269111
0.00268461
0.00267759
0.00267007
0.00266206
0.00265357
0.00264463
0.00263524
0.00262541
0.00261517
0.00260452
0.00259344
0.00258184
0.00256945
0.00255573
0.00254082
0.00252511
0.00250889
0.0024923
0.00247541
0.00245829
0.00244097
0.00242347
0.00240581
0.00238799
0.00236997
0.00235168
0.00233276
0.00231227
0.00228695
0.00224056
4.2437e-06
6.52066e-05
0.000138129
0.000195604
0.000238694
0.000271055
0.000296097
0.000316453
0.000334031
0.000350126
0.000365545
0.000380738
0.000395918
0.000411155
0.00042644
0.000441731
0.000456968
0.000472088
0.000487031
0.000501735
0.000516138
0.000530165
0.000543733
0.000556767
0.000569238
0.000581225
0.000593005
0.00060516
0.000618592
0.000634218
0.000652387
0.000672562
0.000694349
0.000717525
0.000741855
0.000767009
0.000792585
0.000818207
0.000843721
0.000869328
0.000895511
0.000922137
0.000949444
0.000977012
0.00100481
0.00103283
0.00106106
0.00108951
0.00111818
0.00114706
0.00117617
0.00120549
0.00123503
0.00126478
0.00129474
0.00132492
0.00135533
0.00138596
0.00141682
0.00144789
0.00147919
0.0015107
0.00154243
0.00157436
0.00160648
0.0016388
0.0016713
0.00170396
0.00173679
0.00176976
0.00180287
0.0018361
0.00186943
0.00190285
0.00193634
0.00196989
0.00200347
0.00203707
0.00207067
0.00210425
0.00213779
0.00217127
0.00220466
0.00223795
0.00227111
0.00230413
0.00233696
0.00236961
0.00240202
0.00243419
0.00246608
0.00249766
0.0025289
0.00255976
0.00259022
0.00262026
0.00264986
0.00267902
0.00270773
0.002736
0.00276382
0.00279116
0.00281802
0.00284437
0.00287018
0.00289545
0.00292016
0.00294429
0.00296781
0.00299073
0.00301302
0.00303466
0.00305565
0.00307596
0.0030956
0.00311454
0.00313277
0.00315028
0.00316707
0.00318313
0.00319843
0.00321299
0.00322678
0.00323981
0.00325206
0.00326354
0.00327425
0.00328417
0.00329334
0.00330194
0.00330966
0.00331635
0.00332201
0.00332724
0.00333166
0.00333528
0.00333811
0.00334016
0.00334143
0.00334194
0.00334169
0.00334069
0.00333896
0.00333649
0.0033333
0.00332941
0.00332481
0.00331954
0.00331359
0.00330699
0.00329974
0.00329186
0.00328337
0.00327429
0.00326462
0.0032544
0.00324363
0.00323234
0.00322053
0.00320822
0.00319539
0.00318199
0.00316783
0.00315264
0.00313644
0.00311945
0.00310186
0.00308382
0.00306539
0.00304666
0.00302766
0.00300843
0.00298899
0.00296936
0.00294952
0.00292935
0.00290855
0.00288615
0.00285897
0.00281497
5.3644e-06
7.43012e-05
0.000156512
0.000222061
0.000272064
0.000310022
0.000339539
0.000363433
0.000383789
0.000402073
0.000419253
0.000435928
0.000452433
0.000468934
0.0004855
0.000502148
0.000518872
0.000535663
0.000552517
0.000569436
0.000586428
0.000603511
0.000620705
0.000638041
0.00065557
0.000673378
0.000691607
0.00071049
0.000730348
0.00075148
0.000773999
0.000797814
0.000822817
0.000848922
0.000876033
0.000904026
0.000932739
0.000961998
0.000991688
0.00102178
0.00105232
0.00108328
0.00111463
0.00114627
0.00117816
0.00121029
0.00124264
0.00127523
0.00130804
0.00134108
0.00137435
0.00140786
0.0014416
0.00147558
0.0015098
0.00154425
0.00157894
0.00161385
0.00164898
0.00168433
0.00171989
0.00175567
0.00179164
0.00182782
0.00186418
0.00190072
0.00193742
0.00197429
0.0020113
0.00204844
0.00208569
0.00212305
0.0021605
0.00219801
0.00223558
0.00227317
0.00231079
0.0023484
0.00238598
0.00242352
0.002461
0.00249839
0.00253566
0.00257281
0.0026098
0.00264661
0.00268321
0.00271959
0.00275572
0.00279156
0.0028271
0.0028623
0.00289714
0.00293159
0.00296563
0.00299924
0.0030324
0.00306509
0.00309732
0.00312906
0.00316031
0.00319103
0.00322122
0.00325084
0.00327989
0.00330834
0.00333617
0.00336336
0.0033899
0.00341577
0.00344095
0.00346543
0.00348919
0.00351222
0.0035345
0.00355601
0.00357676
0.00359672
0.00361588
0.00363424
0.00365179
0.0036685
0.00368439
0.00369943
0.00371363
0.00372697
0.00373946
0.0037511
0.003762
0.00377219
0.00378131
0.00378937
0.00379647
0.00380296
0.00380857
0.00381329
0.00381715
0.00382015
0.0038223
0.00382361
0.00382408
0.00382373
0.00382256
0.00382058
0.00381781
0.00381425
0.00380992
0.00380483
0.00379899
0.00379242
0.00378513
0.00377713
0.00376845
0.0037591
0.00374909
0.00373845
0.00372719
0.00371533
0.00370289
0.00368988
0.00367629
0.00366208
0.00364717
0.00363139
0.00361475
0.00359734
0.00357931
0.00356077
0.00354178
0.00352243
0.00350276
0.00348282
0.00346265
0.00344228
0.00342171
0.00340086
0.00337947
0.00335666
0.0033296
0.0032897
6.3911e-06
8.18178e-05
0.000171765
0.000244302
0.000300503
0.000343619
0.000377356
0.000404653
0.00042773
0.000448191
0.000467147
0.000485326
0.000503181
0.000520974
0.000538851
0.000556888
0.000575128
0.000593601
0.000612335
0.000631364
0.000650726
0.000670468
0.000690642
0.000711305
0.00073252
0.000754358
0.000776898
0.000800238
0.000824492
0.000849755
0.000876068
0.00090341
0.000931737
0.000960995
0.000991127
0.00102206
0.00105371
0.00108597
0.00111876
0.00115202
0.0011857
0.00121976
0.00125417
0.00128887
0.00132384
0.00135905
0.00139451
0.00143019
0.00146611
0.00150225
0.00153862
0.00157522
0.00161205
0.0016491
0.00168638
0.00172389
0.00176162
0.00179956
0.00183771
0.00187607
0.00191463
0.00195339
0.00199234
0.00203147
0.00207077
0.00211024
0.00214986
0.00218962
0.00222951
0.00226952
0.00230963
0.00234983
0.0023901
0.00243042
0.00247079
0.00251117
0.00255155
0.00259191
0.00263224
0.00267251
0.0027127
0.00275278
0.00279275
0.00283257
0.00287222
0.00291168
0.00295093
0.00298993
0.00302867
0.00306712
0.00310526
0.00314305
0.00318048
0.00321751
0.00325414
0.00329033
0.00332608
0.00336135
0.00339614
0.00343043
0.00346419
0.00349742
0.00353008
0.00356216
0.00359363
0.00362448
0.00365468
0.00368421
0.00371306
0.00374121
0.00376864
0.00379533
0.00382126
0.00384643
0.00387082
0.0038944
0.00391717
0.00393912
0.00396023
0.0039805
0.0039999
0.00401844
0.0040361
0.00405287
0.00406875
0.00408373
0.00409781
0.004111
0.00412351
0.00413503
0.00414556
0.00415495
0.00416349
0.00417124
0.00417806
0.00418396
0.00418894
0.00419302
0.00419619
0.00419848
0.00419988
0.00420041
0.00420008
0.00419889
0.00419685
0.00419398
0.00419029
0.00418579
0.00418049
0.00417441
0.00416756
0.00415995
0.00415161
0.00414254
0.00413276
0.0041223
0.00411117
0.00409938
0.00408696
0.00407391
0.00406025
0.00404594
0.00403095
0.00401519
0.00399866
0.0039814
0.00396351
0.00394506
0.00392614
0.0039068
0.00388711
0.00386713
0.00384689
0.00382646
0.00380586
0.00378506
0.00376386
0.00374149
0.00371559
0.00367979
7.29584e-06
8.78809e-05
0.000184164
0.000262705
0.000324436
0.000372306
0.000410038
0.00044064
0.000466421
0.000489092
0.000509879
0.000529623
0.000548882
0.000568009
0.000587223
0.000606658
0.0006264
0.000646512
0.00066704
0.00068803
0.000709531
0.000731595
0.000754273
0.000777621
0.000801695
0.000826555
0.000852234
0.00087877
0.000906198
0.000934542
0.000963804
0.000993963
0.00102498
0.00105682
0.00108941
0.00112271
0.00115666
0.00119118
0.00122621
0.0012617
0.00129759
0.00133386
0.00137046
0.00140735
0.00144451
0.00148193
0.00151958
0.00155745
0.00159554
0.00163384
0.00167236
0.00171108
0.00175001
0.00178915
0.0018285
0.00186805
0.00190779
0.00194774
0.00198787
0.00202819
0.0020687
0.00210938
0.00215024
0.00219126
0.00223243
0.00227376
0.00231522
0.00235682
0.00239853
0.00244035
0.00248226
0.00252425
0.00256631
0.00260842
0.00265056
0.00269272
0.00273488
0.00277702
0.00281912
0.00286117
0.00290315
0.00294503
0.00298679
0.00302841
0.00306987
0.00311115
0.00315222
0.00319305
0.00323364
0.00327394
0.00331394
0.00335361
0.00339293
0.00343187
0.00347041
0.00350854
0.00354622
0.00358343
0.00362017
0.0036564
0.00369211
0.00372727
0.00376187
0.00379587
0.00382925
0.00386201
0.0038941
0.00392552
0.00395624
0.00398625
0.00401552
0.00404403
0.00407178
0.00409874
0.00412489
0.00415022
0.00417472
0.00419838
0.00422117
0.00424309
0.00426412
0.00428427
0.0043035
0.00432183
0.00433923
0.0043557
0.00437124
0.00438593
0.00439983
0.00441266
0.00442455
0.00443529
0.00444522
0.00445423
0.00446229
0.0044694
0.00447557
0.0044808
0.0044851
0.00448849
0.00449096
0.00449253
0.00449321
0.004493
0.00449192
0.00448998
0.00448718
0.00448354
0.00447907
0.00447379
0.0044677
0.00446083
0.00445319
0.00444478
0.00443564
0.00442577
0.00441519
0.00440391
0.00439196
0.00437936
0.00436609
0.00435217
0.00433757
0.00432226
0.00430621
0.00428948
0.00427211
0.00425416
0.00423571
0.0042168
0.00419752
0.00417791
0.00415805
0.004138
0.00411782
0.00409751
0.00407695
0.00405551
0.00403127
0.00399992
8.06179e-06
9.26093e-05
0.000193946
0.000277572
0.000344183
0.000396402
0.000437902
0.000471703
0.000500166
0.000525077
0.000547749
0.000569119
0.000589832
0.000610324
0.000630874
0.00065167
0.000672841
0.000694512
0.000716706
0.000739465
0.000762837
0.000786867
0.000811594
0.000837049
0.000863247
0.000890257
0.000918121
0.000946857
0.000976468
0.00100695
0.00103828
0.00107044
0.00110338
0.00113707
0.00117145
0.00120648
0.0012421
0.00127826
0.0013149
0.00135196
0.00138938
0.00142706
0.00146504
0.0015033
0.00154186
0.00158067
0.00161969
0.0016589
0.00169831
0.00173789
0.00177766
0.00181762
0.00185775
0.00189806
0.00193855
0.00197921
0.00202005
0.00206106
0.00210224
0.00214359
0.0021851
0.00222678
0.00226861
0.0023106
0.00235273
0.00239501
0.00243741
0.00247995
0.00252261
0.00256537
0.00260824
0.00265119
0.00269421
0.00273731
0.00278044
0.00282362
0.00286681
0.00291001
0.00295319
0.00299634
0.00303944
0.00308246
0.0031254
0.00316822
0.00321091
0.00325344
0.00329579
0.00333793
0.00337985
0.00342152
0.00346291
0.00350401
0.00354477
0.00358519
0.00362523
0.00366487
0.00370409
0.00374287
0.00378118
0.003819
0.0038563
0.00389306
0.00392926
0.00396487
0.00399988
0.00403425
0.00406796
0.004101
0.00413334
0.00416496
0.00419584
0.00422596
0.0042553
0.00428384
0.00431157
0.00433847
0.00436453
0.00438973
0.00441405
0.00443749
0.00446002
0.00448165
0.00450236
0.00452213
0.00454097
0.00455886
0.00457579
0.00459193
0.00460708
0.00462126
0.00463447
0.0046466
0.00465788
0.00466819
0.00467751
0.00468586
0.00469326
0.00469971
0.00470522
0.00470979
0.00471343
0.00471615
0.00471797
0.00471888
0.0047189
0.00471805
0.00471632
0.00471374
0.00471031
0.00470604
0.00470096
0.00469506
0.00468838
0.00468091
0.00467267
0.00466369
0.00465397
0.00464353
0.00463238
0.00462055
0.00460803
0.00459485
0.00458097
0.00456641
0.00455114
0.0045352
0.00451862
0.00450144
0.00448374
0.00446556
0.00444697
0.00442804
0.00440885
0.00438947
0.00437
0.00435046
0.0043308
0.00431051
0.0042881
0.00426106
8.68012e-06
9.61158e-05
0.000201319
0.000289256
0.000360012
0.000416179
0.000461197
0.000498063
0.000529156
0.000556308
0.000580894
0.000603921
0.000626115
0.000648003
0.000669874
0.000691923
0.000714262
0.000736966
0.000760236
0.000784159
0.000808788
0.000834162
0.000860317
0.00088728
0.000915089
0.000943758
0.000973284
0.00100367
0.00103488
0.0010669
0.00109969
0.00113322
0.00116745
0.00120234
0.00123783
0.00127388
0.00131045
0.00134748
0.00138493
0.00142276
0.00146094
0.00149948
0.00153831
0.00157738
0.00161662
0.00165605
0.00169565
0.00173539
0.00177527
0.00181529
0.00185546
0.00189577
0.00193623
0.00197683
0.00201758
0.00205849
0.00209954
0.00214075
0.00218211
0.00222363
0.0022653
0.00230714
0.00234912
0.00239127
0.00243357
0.00247602
0.00251862
0.00256136
0.00260425
0.00264727
0.00269041
0.00273368
0.00277705
0.00282053
0.00286409
0.00290772
0.00295142
0.00299516
0.00303893
0.00308272
0.0031265
0.00317025
0.00321396
0.0032576
0.00330115
0.00334459
0.00338789
0.00343103
0.00347399
0.00351674
0.00355926
0.00360151
0.00364347
0.00368512
0.00372643
0.00376737
0.00380791
0.00384804
0.00388772
0.00392693
0.00396564
0.00400383
0.00404147
0.00407854
0.004115
0.00415084
0.00418604
0.00422056
0.00425439
0.00428749
0.00431986
0.00435148
0.00438231
0.00441234
0.00444156
0.00446994
0.00449747
0.00452413
0.00454991
0.0045748
0.00459878
0.00462183
0.00464396
0.00466515
0.00468538
0.00470466
0.004723
0.00474045
0.00475692
0.00477244
0.00478698
0.00480053
0.00481317
0.00482479
0.0048354
0.00484504
0.00485372
0.00486144
0.00486821
0.00487404
0.00487893
0.0048829
0.00488595
0.0048881
0.00488935
0.00488971
0.00488919
0.00488781
0.00488557
0.00488249
0.00487858
0.00487386
0.00486832
0.004862
0.00485489
0.00484702
0.00483839
0.00482903
0.00481893
0.00480813
0.00479663
0.00478444
0.00477155
0.00475797
0.00474371
0.00472877
0.00471319
0.004697
0.00468026
0.00466302
0.00464534
0.0046273
0.00460899
0.00459049
0.00457191
0.00455332
0.0045347
0.00451567
0.00449506
0.00447152
9.15001e-06
9.85297e-05
0.000206534
0.000297994
0.000372242
0.000431915
0.000480165
0.000519921
0.000553544
0.00058289
0.000609401
0.000634046
0.000657523
0.000680271
0.000702893
0.000725704
0.000748929
0.00077277
0.00079728
0.000822469
0.000848372
0.00087502
0.00090244
0.000930653
0.000959671
0.000989485
0.00102007
0.0010514
0.00108347
0.00111626
0.00114973
0.00118386
0.00121861
0.00125393
0.00128977
0.0013261
0.00136287
0.00140003
0.00143756
0.0014754
0.00151354
0.00155193
0.00159055
0.00162936
0.00166846
0.00170777
0.00174717
0.00178662
0.00182612
0.00186571
0.0019054
0.0019452
0.0019851
0.00202513
0.00206529
0.00210558
0.00214601
0.0021866
0.00222734
0.00226824
0.00230931
0.00235056
0.00239198
0.0024336
0.0024754
0.00251739
0.00255957
0.00260195
0.00264451
0.00268727
0.0027302
0.00277332
0.00281661
0.00286006
0.00290366
0.0029474
0.00299127
0.00303525
0.00307932
0.00312348
0.00316769
0.00321195
0.00325622
0.00330048
0.00334472
0.0033889
0.00343301
0.003477
0.00352087
0.00356458
0.0036081
0.0036514
0.00369446
0.00373724
0.00377972
0.00382187
0.00386365
0.00390505
0.00394602
0.00398655
0.0040266
0.00406615
0.00410516
0.00414362
0.00418149
0.00421875
0.00425537
0.00429133
0.00432659
0.00436115
0.00439497
0.00442803
0.00446032
0.00449181
0.00452247
0.00455231
0.00458128
0.00460939
0.00463661
0.00466293
0.00468834
0.00471282
0.00473636
0.00475895
0.00478059
0.00480127
0.00482099
0.00483976
0.00485757
0.00487447
0.00489039
0.00490534
0.00491941
0.00493236
0.0049443
0.00495528
0.00496529
0.00497434
0.00498245
0.0049896
0.00499583
0.00500112
0.00500551
0.00500898
0.00501155
0.00501324
0.00501406
0.005014
0.0050131
0.00501134
0.00500876
0.00500535
0.00500114
0.00499612
0.00499032
0.00498375
0.00497641
0.00496832
0.00495949
0.00494993
0.00493965
0.00492867
0.00491699
0.00490461
0.00489154
0.00487779
0.00486339
0.00484836
0.00483276
0.00481663
0.00480004
0.00478307
0.0047658
0.00474834
0.00473079
0.00471326
0.00469577
0.00467801
0.0046591
0.00463849
9.47778e-06
9.99925e-05
0.000209833
0.000304017
0.000381161
0.000443884
0.000495046
0.000537489
0.000573453
0.00060467
0.000632498
0.00065821
0.000682712
0.000706741
0.000730647
0.000754683
0.000779056
0.000803895
0.000829242
0.0008552
0.000881825
0.000909153
0.000937203
0.000965985
0.000995498
0.00102573
0.00105664
0.00108822
0.00112044
0.00115328
0.00118672
0.00122071
0.00125522
0.00129021
0.00132563
0.00136143
0.00139759
0.00143407
0.00147084
0.00150786
0.00154508
0.00158245
0.00162004
0.00165794
0.00169612
0.00173433
0.0017726
0.00181087
0.0018491
0.00188735
0.00192565
0.00196403
0.00200251
0.0020411
0.00207982
0.00211869