/*--------------------------------*- C++ -*----------------------------------*\
  =========                 |
  \\      /  F ield         | OpenFOAM: The Open Source CFD Toolbox
   \\    /   O peration     | Website:  https://openfoam.org
    \\  /    A nd           | Version:  13
     \\/     M anipulation  |
\*---------------------------------------------------------------------------*/
FoamFile
{
    format      ascii;
    class       volScalarField;
    location    "285";
    object      p;
}
// * * * * * * * * * * * * * * * * * * * * * * * * * * * * * * * * * * * * * //

dimensions      [0 2 -2 0 0 0 0];

internalField   nonuniform List<scalar> 
12225
(
-1.33865
-3.53544
-4.62624
-4.93943
-5.11903
-5.28899
-5.42181
-5.51833
-5.59622
-5.66485
-5.72616
-5.78248
-5.83404
-5.88271
-5.92894
-5.96969
-6.01884
-6.00788
-4.50682
-5.27313
-5.43224
-5.33737
-5.32282
-5.38951
-5.46648
-5.53217
-5.59216
-5.65036
-5.70604
-5.7583
-5.80791
-5.85519
-5.9013
-5.94316
-5.99188
-6.02577
-4.87834
-4.85927
-4.99685
-5.08092
-5.17836
-5.30024
-5.40882
-5.4947
-5.56755
-5.63398
-5.69527
-5.75154
-5.80431
-5.85405
-5.90235
-5.94732
-5.99787
-6.04193
-4.7748
-4.72117
-4.96632
-5.1233
-5.22279
-5.32794
-5.42537
-5.50543
-5.57451
-5.63816
-5.69753
-5.75261
-5.80458
-5.85388
-5.9019
-5.94794
-5.99729
-6.04537
-4.76724
-4.79089
-5.01925
-5.15992
-5.24266
-5.33468
-5.42628
-5.50443
-5.57256
-5.6355
-5.69449
-5.74954
-5.8016
-5.85121
-5.89956
-5.94663
-5.99551
-6.04512
-4.82444
-4.8717
-5.04632
-5.1704
-5.25171
-5.33962
-5.42801
-5.50492
-5.57239
-5.63474
-5.6933
-5.74817
-5.80014
-5.84982
-5.8982
-5.9456
-5.99385
-6.04298
-4.88419
-4.92736
-5.06297
-5.17958
-5.26313
-5.34724
-5.43139
-5.50637
-5.57291
-5.63448
-5.69243
-5.74696
-5.7987
-5.84827
-5.89648
-5.94377
-5.99122
-6.03901
-4.93746
-4.97454
-5.08474
-5.1932
-5.27603
-5.35559
-5.4352
-5.508
-5.57344
-5.63414
-5.6914
-5.74549
-5.7969
-5.84623
-5.8941
-5.94095
-5.98742
-6.03357
-4.987
-5.01982
-5.11082
-5.20888
-5.28887
-5.36422
-5.43955
-5.50994
-5.57408
-5.63378
-5.69022
-5.74373
-5.79468
-5.84359
-5.89094
-5.93709
-5.98243
-6.02684
-5.03387
-5.06294
-5.13847
-5.22576
-5.30192
-5.37346
-5.4447
-5.51241
-5.57499
-5.63351
-5.68899
-5.74175
-5.79208
-5.84037
-5.88702
-5.93228
-5.97637
-6.01908
-5.07802
-5.1034
-5.16659
-5.2438
-5.31547
-5.38329
-5.4506
-5.51545
-5.57623
-5.63342
-5.68778
-5.73962
-5.78916
-5.83668
-5.88246
-5.92668
-5.96947
-6.01055
-5.11589
-5.13817
-5.19235
-5.26119
-5.3283
-5.39268
-5.45656
-5.51872
-5.57768
-5.6335
-5.68672
-5.73758
-5.78625
-5.83293
-5.8778
-5.92098
-5.96255
-6.00222
-5.15086
-5.17054
-5.21734
-5.27872
-5.3412
-5.40218
-5.46281
-5.52229
-5.57934
-5.63372
-5.68571
-5.73551
-5.78322
-5.82896
-5.87285
-5.91496
-5.95533
-5.99369
-5.18748
-5.20464
-5.24463
-5.29863
-5.35593
-5.41307
-5.47018
-5.52668
-5.58147
-5.63409
-5.68459
-5.73307
-5.77958
-5.82416
-5.86688
-5.90774
-5.94677
-5.98376
-5.22449
-5.23925
-5.27322
-5.32028
-5.37213
-5.42508
-5.47849
-5.53178
-5.58399
-5.63453
-5.68327
-5.73018
-5.77524
-5.81844
-5.85978
-5.89924
-5.93684
-5.9724
-5.25991
-5.27253
-5.30143
-5.34235
-5.38887
-5.43752
-5.48719
-5.53717
-5.5866
-5.63484
-5.68159
-5.7267
-5.7701
-5.81173
-5.85153
-5.88949
-5.9256
-5.95975
-5.29085
-5.30171
-5.32664
-5.36254
-5.40436
-5.449
-5.49516
-5.54198
-5.58865
-5.63451
-5.67915
-5.72235
-5.76398
-5.80393
-5.84213
-5.87855
-5.91318
-5.94596
-5.31294
-5.32258
-5.34481
-5.37722
-5.41559
-5.45714
-5.50047
-5.54469
-5.58898
-5.6327
-5.67539
-5.71678
-5.7567
-5.79502
-5.83169
-5.86665
-5.89989
-5.9314
-5.31928
-5.32843
-5.34961
-5.3807
-5.41772
-5.45789
-5.49981
-5.5426
-5.58548
-5.62781
-5.66912
-5.70915
-5.74773
-5.78475
-5.82016
-5.85392
-5.88604
-5.91653
-5.30281
-5.31256
-5.33513
-5.36816
-5.40708
-5.44866
-5.49148
-5.53483
-5.57802
-5.62039
-5.66152
-5.7012
-5.73932
-5.7758
-5.8106
-5.84373
-5.87521
-5.90509
-5.27572
-5.2865
-5.31174
-5.34872
-5.39142
-5.43581
-5.48074
-5.5258
-5.57025
-5.61341
-5.65498
-5.69487
-5.73303
-5.76941
-5.80403
-5.83692
-5.86813
-5.89773
-5.24033
-5.25213
-5.28146
-5.32503
-5.37323
-5.42108
-5.46873
-5.51629
-5.56266
-5.60706
-5.64939
-5.68975
-5.72816
-5.76464
-5.79923
-5.83201
-5.86307
-5.8925
-5.19966
-5.2115
-5.24599
-5.29932
-5.35476
-5.40651
-5.45721
-5.5075
-5.55587
-5.60157
-5.64482
-5.68583
-5.72464
-5.76133
-5.79599
-5.82877
-5.85977
-5.88914
-5.1559
-5.16663
-5.20851
-5.27322
-5.33535
-5.39174
-5.44708
-5.50073
-5.55081
-5.59745
-5.6414
-5.68292
-5.72202
-5.75882
-5.7935
-5.82625
-5.8572
-5.88647
-5.10913
-5.11408
-5.17667
-5.25517
-5.31717
-5.37534
-5.43637
-5.49458
-5.54692
-5.59477
-5.6396
-5.68168
-5.72104
-5.75791
-5.79256
-5.82522
-5.85607
-5.88529
-5.06601
-5.02965
-5.13944
-5.24976
-5.31099
-5.36585
-5.42806
-5.48784
-5.54104
-5.5897
-5.63536
-5.67809
-5.71787
-5.75501
-5.78982
-5.8226
-5.85353
-5.88281
-5.07861
-4.92098
-5.05527
-5.21044
-5.29856
-5.36812
-5.43595
-5.49609
-5.54825
-5.59602
-5.64088
-5.68279
-5.72178
-5.75817
-5.79231
-5.82448
-5.85491
-5.88385
-5.19477
-5.00123
-5.02117
-5.09966
-5.19095
-5.29167
-5.38335
-5.4578
-5.51994
-5.57537
-5.62587
-5.67174
-5.71357
-5.75205
-5.7877
-5.82097
-5.85233
-5.88246
-4.926
-5.51178
-5.59702
-5.47023
-5.41424
-5.44014
-5.48597
-5.52825
-5.56913
-5.61088
-5.65209
-5.69124
-5.72807
-5.7627
-5.79519
-5.82568
-5.85436
-5.88298
-1.91876
-3.69991
-4.69683
-4.98662
-5.13293
-5.27683
-5.39165
-5.4732
-5.53786
-5.59506
-5.64651
-5.69264
-5.73432
-5.7725
-5.80771
-5.83975
-5.86849
-5.89217
-6.74929
-6.7493
-6.74966
-6.75042
-6.75141
-6.75256
-6.75389
-6.75541
-6.75716
-6.7592
-6.76156
-6.76429
-6.76744
-6.77105
-6.77517
-6.77984
-6.78511
-6.79102
-6.79761
-6.80492
-6.813
-6.82189
-6.83164
-6.84232
-6.85398
-6.86669
-6.88052
-6.89557
-6.912
-6.93008
-6.94996
-6.97122
-6.99298
-7.01485
-7.03714
-7.06062
-7.08492
-7.10913
-7.13408
-7.16071
-7.18587
-7.20963
-7.23259
-7.25669
-7.28384
-7.31165
-7.3404
-7.36972
-7.39944
-7.42942
-7.45953
-7.48968
-7.51974
-7.54962
-7.57922
-7.60844
-7.63718
-7.66532
-7.69277
-7.7194
-7.74509
-7.76973
-7.79316
-7.81527
-7.8359
-7.8549
-7.87213
-7.88741
-7.90058
-7.91147
-7.9199
-7.92569
-7.92865
-7.9286
-7.92534
-7.91869
-7.90843
-7.89439
-7.87635
-7.85413
-7.82752
-7.79634
-7.76038
-7.71947
-7.67341
-7.62204
-7.56516
-7.50262
-7.43424
-7.35987
-7.2794
-7.19268
-7.09959
-6.99998
-6.89381
-6.78119
-6.6622
-6.53664
-6.4039
-6.26386
-6.11677
-5.96268
-5.80163
-5.63365
-5.45876
-5.277
-5.08845
-4.89317
-4.69125
-4.4828
-4.26793
-4.0468
-3.81954
-3.58632
-3.34731
-3.10272
-2.85274
-2.59758
-2.3375
-2.07272
-1.80351
-1.53014
-1.25286
-0.97197
-0.687744
-0.400492
-0.110521
0.181852
0.476323
0.772585
1.07032
1.36917
1.66878
1.96885
2.26907
2.56911
2.86865
3.16735
3.4649
3.761
4.05535
4.34766
4.63764
4.92504
5.20957
5.49099
5.76907
6.04356
6.31427
6.58097
6.8435
7.10166
7.35531
7.60428
7.84846
8.08772
8.32195
8.55106
8.77498
8.99364
9.20699
9.41499
9.61774
9.81526
10.0073
10.1936
10.3743
10.5494
10.7188
10.8828
11.0411
11.194
11.3415
11.4836
11.6207
11.7531
11.8821
12.0092
12.1457
12.2884
-6.74828
-6.74853
-6.74905
-6.74974
-6.75038
-6.75093
-6.75154
-6.75235
-6.75346
-6.75492
-6.75677
-6.75902
-6.76172
-6.76488
-6.76854
-6.77273
-6.77749
-6.78286
-6.78889
-6.7956
-6.80306
-6.81129
-6.82035
-6.83027
-6.84111
-6.85289
-6.86562
-6.87927
-6.89381
-6.90915
-6.92499
-6.94118
-6.95837
-6.97702
-6.99724
-7.01798
-7.03832
-7.05994
-7.0832
-7.10581
-7.13221
-7.16287
-7.19621
-7.22985
-7.25988
-7.2896
-7.31925
-7.34899
-7.37886
-7.40882
-7.43882
-7.46879
-7.49866
-7.52834
-7.55774
-7.58676
-7.61532
-7.64332
-7.67063
-7.69716
-7.72278
-7.74737
-7.77081
-7.79295
-7.81365
-7.83277
-7.85015
-7.86563
-7.87905
-7.89023
-7.89899
-7.90517
-7.90857
-7.909
-7.90628
-7.90021
-7.8906
-7.87725
-7.85995
-7.83853
-7.81278
-7.7825
-7.74751
-7.70762
-7.66264
-7.6124
-7.55673
-7.49545
-7.4284
-7.35544
-7.27645
-7.19129
-7.09983
-7.00195
-6.89751
-6.7864
-6.66839
-6.54334
-6.41147
-6.27286
-6.12738
-5.97497
-5.81563
-5.64937
-5.47622
-5.29621
-5.10941
-4.91587
-4.71569
-4.50897
-4.29583
-4.0764
-3.85083
-3.61927
-3.3819
-3.13892
-2.89051
-2.6369
-2.37831
-2.11499
-1.8472
-1.57519
-1.29923
-1.01959
-0.736562
-0.450448
-0.161555
0.129804
0.423323
0.718704
1.01563
1.31374
1.61269
1.91218
2.21189
2.51149
2.81067
3.10909
3.40644
3.70242
3.99673
4.28907
4.57916
4.86674
5.15153
5.43328
5.71176
5.98672
6.25796
6.52527
6.78845
7.04733
7.30175
7.55156
7.79661
8.03679
8.27199
8.50212
8.7271
8.94687
9.16141
9.37067
9.57445
9.77247
9.96477
10.1515
10.3325
10.508
10.678
10.8424
11.0013
11.1548
11.3029
11.4458
11.5838
11.7174
11.8482
11.9772
12.1172
12.2556
-6.74454
-6.74538
-6.74667
-6.74778
-6.74848
-6.74891
-6.74932
-6.74987
-6.75071
-6.75191
-6.75351
-6.75555
-6.75805
-6.76105
-6.76456
-6.76862
-6.77326
-6.77853
-6.78446
-6.79109
-6.79846
-6.80662
-6.8156
-6.82545
-6.8362
-6.84789
-6.86052
-6.87412
-6.88869
-6.90415
-6.92029
-6.93692
-6.95423
-6.97268
-6.99259
-7.01373
-7.03574
-7.05895
-7.0832
-7.10771
-7.13301
-7.15962
-7.18744
-7.21624
-7.24496
-7.27395
-7.30312
-7.33244
-7.36187
-7.39137
-7.42089
-7.45037
-7.47974
-7.50893
-7.53786
-7.56644
-7.59458
-7.62218
-7.64914
-7.67534
-7.70068
-7.72504
-7.74827
-7.77026
-7.79086
-7.80992
-7.82728
-7.8428
-7.85631
-7.86764
-7.8766
-7.88304
-7.88675
-7.88756
-7.88527
-7.87969
-7.87063
-7.8579
-7.84129
-7.82061
-7.79567
-7.76627
-7.73222
-7.69333
-7.64942
-7.60031
-7.54583
-7.4858
-7.42006
-7.34846
-7.27087
-7.18714
-7.09716
-7.0008
-6.89796
-6.78851
-6.67227
-6.5491
-6.4191
-6.28235
-6.13876
-5.98831
-5.83096
-5.66671
-5.4956
-5.31765
-5.13291
-4.94145
-4.74336
-4.53873
-4.32768
-4.11032
-3.88682
-3.65732
-3.42199
-3.18102
-2.93461
-2.68296
-2.4263
-2.16487
-1.89893
-1.62872
-1.35451
-1.07658
-0.795201
-0.510677
-0.223315
0.0665754
0.358689
0.652734
0.948389
1.2453
1.54314
1.84159
2.14034
2.43907
2.73744
3.03515
3.33187
3.62729
3.92113
4.21308
4.50287
4.79022
5.07485
5.35653
5.63501
5.91005
6.18143
6.44895
6.7124
6.97162
7.22644
7.47669
7.72224
7.96298
8.19877
8.42951
8.65513
8.87552
9.09062
9.3004
9.50483
9.70384
9.89739
10.0854
10.2678
10.4447
10.6159
10.7817
10.9419
11.0967
11.2461
11.3904
11.53
11.6654
11.7985
11.9293
12.0711
12.197
-6.73853
-6.74016
-6.7427
-6.74477
-6.74606
-6.7469
-6.74759
-6.74832
-6.74923
-6.75045
-6.75203
-6.75403
-6.7565
-6.75945
-6.76293
-6.76697
-6.77159
-6.77684
-6.78276
-6.78937
-6.79672
-6.80485
-6.81379
-6.82358
-6.83425
-6.84581
-6.85827
-6.87165
-6.88595
-6.90112
-6.91708
-6.93374
-6.95115
-6.96945
-6.98884
-7.00938
-7.03106
-7.05395
-7.078
-7.10301
-7.1288
-7.15525
-7.18226
-7.20977
-7.23764
-7.26587
-7.29438
-7.32311
-7.35201
-7.38101
-7.41005
-7.43907
-7.46801
-7.49679
-7.52533
-7.55356
-7.58137
-7.60868
-7.63538
-7.66136
-7.68652
-7.71073
-7.73386
-7.75578
-7.77635
-7.79542
-7.81285
-7.82847
-7.84213
-7.85364
-7.86285
-7.86956
-7.8736
-7.87479
-7.87292
-7.86781
-7.85927
-7.8471
-7.8311
-7.81108
-7.78685
-7.7582
-7.72495
-7.68691
-7.6439
-7.59573
-7.54223
-7.48323
-7.41855
-7.34806
-7.2716
-7.18904
-7.10024
-7.00508
-6.90345
-6.79524
-6.68033
-6.55862
-6.43014
-6.29487
-6.15278
-6.00384
-5.84803
-5.68534
-5.5158
-5.33943
-5.15628
-4.96642
-4.76993
-4.56691
-4.35745
-4.1417
-3.91978
-3.69186
-3.4581
-3.21867
-2.97378
-2.72364
-2.46846
-2.20848
-1.94396
-1.67513
-1.40227
-1.12563
-0.845519
-0.562214
-0.276026
0.0127376
0.30378
0.596807
0.891486
1.18747
1.48445
1.78211
2.08013
2.37818
2.67594
2.97309
3.26931
3.56431
3.85778
4.14943
4.43898
4.72614
5.01066
5.29228
5.57075
5.84584
6.11732
6.385
6.64866
6.90814
7.16325
7.41385
7.65978
7.9009
8.13712
8.36833
8.59445
8.81539
9.03107
9.24145
9.44651
9.64626
9.84067
10.0296
10.213
10.3907
10.5629
10.7296
10.8908
11.0465
11.197
11.3423
11.483
11.6195
11.7536
11.8842
12.0241
12.1359
-6.73165
-6.73411
-6.73808
-6.74136
-6.7435
-6.74499
-6.74619
-6.74734
-6.74858
-6.75006
-6.75186
-6.75404
-6.75667
-6.75978
-6.76341
-6.76759
-6.77236
-6.77777
-6.78383
-6.7906
-6.7981
-6.80639
-6.81548
-6.82542
-6.83623
-6.84792
-6.86049
-6.87397
-6.88832
-6.90355
-6.91962
-6.93651
-6.95422
-6.9728
-6.99232
-7.0128
-7.03426
-7.05673
-7.0802
-7.10461
-7.12989
-7.1559
-7.18248
-7.20951
-7.2369
-7.26462
-7.29264
-7.32089
-7.34932
-7.37789
-7.40652
-7.43517
-7.46375
-7.4922
-7.52044
-7.54838
-7.57595
-7.60304
-7.62955
-7.65538
-7.68041
-7.70452
-7.72759
-7.74948
-7.77006
-7.78918
-7.80668
-7.82241
-7.8362
-7.84789
-7.8573
-7.86425
-7.86856
-7.87005
-7.86852
-7.86378
-7.85564
-7.84391
-7.82837
-7.80885
-7.78515
-7.75706
-7.7244
-7.68698
-7.64462
-7.59712
-7.54433
-7.48605
-7.42214
-7.35243
-7.27678
-7.19505
-7.1071
-7.01282
-6.91208
-6.80478
-6.69083
-6.57015
-6.44271
-6.30849
-6.16745
-6.01956
-5.8648
-5.70318
-5.53471
-5.35942
-5.17736
-4.9886
-4.7932
-4.59127
-4.3829
-4.16824
-3.9474
-3.72055
-3.48785
-3.24947
-3.00562
-2.75649
-2.50232
-2.24332
-1.97976
-1.71186
-1.4399
-1.16415
-0.884881
-0.602397
-0.316997
-0.0289885
0.261346
0.553695
0.847719
1.14308
1.4395
1.73665
2.03419
2.33181
2.62918
2.92598
3.22191
3.51665
3.80991
4.10139
4.39082
4.6779
4.96239
5.24402
5.52254
5.79772
6.06934
6.33719
6.60106
6.86078
7.11617
7.36706
7.61332
7.85483
8.09146
8.32311
8.54969
8.7711
8.98727
9.19814
9.40366
9.60385
9.79867
9.98803
10.1719
10.3501
10.5229
10.6901
10.8518
11.0081
11.1591
11.305
11.4461
11.5829
11.7169
11.846
11.9826
12.0815
-6.72532
-6.72856
-6.73388
-6.73833
-6.74137
-6.74359
-6.74542
-6.7471
-6.74881
-6.75069
-6.75285
-6.75537
-6.75831
-6.76173
-6.76565
-6.77012
-6.77519
-6.78087
-6.78723
-6.79428
-6.80207
-6.81063
-6.82
-6.83021
-6.84127
-6.85321
-6.86603
-6.87973
-6.8943
-6.90974
-6.92602
-6.94313
-6.96107
-6.97987
-6.99953
-7.02008
-7.0415
-7.0638
-7.08695
-7.11092
-7.13565
-7.16107
-7.18709
-7.21359
-7.24051
-7.26779
-7.29538
-7.32323
-7.35129
-7.3795
-7.4078
-7.43614
-7.46445
-7.49264
-7.52066
-7.54841
-7.57581
-7.60275
-7.62915
-7.6549
-7.67987
-7.70396
-7.72703
-7.74895
-7.76959
-7.78878
-7.80639
-7.82225
-7.8362
-7.84807
-7.85769
-7.86486
-7.86943
-7.87118
-7.86994
-7.86552
-7.85771
-7.84632
-7.83116
-7.81202
-7.78872
-7.76105
-7.72883
-7.69187
-7.64998
-7.60297
-7.55068
-7.49292
-7.42954
-7.36038
-7.28529
-7.20414
-7.11678
-7.0231
-6.92298
-6.81633
-6.70304
-6.58305
-6.45632
-6.3228
-6.18247
-6.03528
-5.88124
-5.72033
-5.55258
-5.37802
-5.19669
-5.00865
-4.81399
-4.61279
-4.40516
-4.19122
-3.97112
-3.74499
-3.51301
-3.27534
-3.03219
-2.78376
-2.53027
-2.27196
-2.00905
-1.74179
-1.47046
-1.19531
-0.916629
-0.634714
-0.349866
-0.0623795
0.22746
0.519327
0.812882
1.10781
1.40383
1.70062
1.99783
2.29514
2.59223
2.88878
3.1845
3.47906
3.77217
4.06354
4.35288
4.63991
4.92438
5.20602
5.48459
5.75984
6.03157
6.29954
6.56358
6.82348
7.07908
7.33023
7.57677
7.81857
8.05551
8.28748
8.51439
8.73615
8.95267
9.16389
9.36975
9.57023
9.76531
9.95495
10.1391
10.3177
10.4908
10.6583
10.8203
10.977
11.1283
11.2744
11.4158
11.5524
11.6857
11.8127
11.9459
12.0335
-6.72059
-6.72452
-6.73094
-6.73639
-6.74027
-6.74322
-6.74569
-6.74794
-6.75016
-6.75252
-6.75512
-6.75805
-6.76139
-6.76518
-6.76948
-6.77433
-6.77976
-6.78582
-6.79253
-6.79994
-6.80808
-6.81698
-6.82668
-6.83719
-6.84855
-6.86076
-6.87383
-6.88776
-6.90256
-6.91819
-6.93466
-6.95194
-6.97005
-6.98897
-7.0087
-7.02926
-7.05063
-7.07281
-7.09576
-7.11945
-7.14383
-7.16885
-7.19444
-7.22054
-7.24707
-7.27399
-7.30125
-7.32878
-7.35655
-7.3845
-7.41257
-7.44069
-7.46881
-7.49684
-7.52472
-7.55236
-7.57967
-7.60657
-7.63293
-7.65867
-7.68366
-7.70779
-7.73092
-7.75293
-7.77366
-7.79298
-7.81073
-7.82675
-7.84087
-7.85293
-7.86275
-7.87014
-7.87493
-7.87692
-7.87593
-7.87176
-7.86422
-7.8531
-7.83822
-7.81937
-7.79637
-7.769
-7.73709
-7.70045
-7.65887
-7.6122
-7.56024
-7.50282
-7.43978
-7.37097
-7.29624
-7.21546
-7.12848
-7.03518
-6.93545
-6.8292
-6.71633
-6.59678
-6.47049
-6.33741
-6.19751
-6.05077
-5.89717
-5.73671
-5.56941
-5.3953
-5.21443
-5.02685
-4.83265
-4.63192
-4.42476
-4.2113
-3.99166
-3.76601
-3.5345
-3.2973
-3.05462
-2.80666
-2.55364
-2.29577
-2.03331
-1.7665
-1.49559
-1.22086
-0.942599
-0.661086
-0.376629
-0.0895108
0.199966
0.491472
0.784678
1.07929
1.37501
1.67153
1.96848
2.26555
2.56242
2.85878
3.15432
3.44873
3.74171
4.03297
4.32223
4.6092
4.89363
5.17526
5.45383
5.72912
6.00089
6.26895
6.53308
6.79311
7.04886
7.30017
7.5469
7.78889
8.02605
8.25824
8.48539
8.70738
8.92415
9.13561
9.34171
9.54242
9.73772
9.92757
10.1119
10.2908
10.4641
10.6319
10.7942
10.951
11.1025
11.2487
11.3899
11.5261
11.6583
11.7831
11.9132
11.9909
-6.71814
-6.7226
-6.7298
-6.73603
-6.74062
-6.74421
-6.74727
-6.75007
-6.75281
-6.75564
-6.75869
-6.76205
-6.76581
-6.77001
-6.77471
-6.77995
-6.78577
-6.79221
-6.79931
-6.80709
-6.81558
-6.82483
-6.83486
-6.84568
-6.85732
-6.86979
-6.8831
-6.89724
-6.91222
-6.92802
-6.94464
-6.96206
-6.98027
-6.99927
-7.01905
-7.0396
-7.06091
-7.08298
-7.10576
-7.12924
-7.15338
-7.17812
-7.20343
-7.22924
-7.2555
-7.28217
-7.30919
-7.33652
-7.3641
-7.39188
-7.41981
-7.44781
-7.47583
-7.5038
-7.53163
-7.55925
-7.58656
-7.61347
-7.63988
-7.66568
-7.69076
-7.71498
-7.73823
-7.76037
-7.78125
-7.80072
-7.81863
-7.83483
-7.84913
-7.86138
-7.87138
-7.87897
-7.88396
-7.88615
-7.88536
-7.88139
-7.87405
-7.86314
-7.84845
-7.8298
-7.80699
-7.77982
-7.7481
-7.71164
-7.67025
-7.62376
-7.57198
-7.51475
-7.45189
-7.38327
-7.30873
-7.22813
-7.14134
-7.04823
-6.9487
-6.84266
-6.73
-6.61067
-6.4846
-6.35175
-6.21208
-6.06557
-5.9122
-5.75197
-5.58491
-5.41104
-5.23042
-5.0431
-4.84916
-4.64869
-4.4418
-4.22861
-4.00925
-3.78388
-3.55265
-3.31575
-3.07337
-2.8257
-2.57297
-2.31541
-2.05324
-1.78672
-1.5161
-1.24166
-0.963683
-0.682453
-0.398268
-0.111414
0.177792
0.469024
0.761971
1.05634
1.35184
1.64814
1.94489
2.24177
2.53846
2.83465
3.13003
3.4243
3.71716
4.00832
4.29748
4.58438
4.86875
5.15034
5.42888
5.70417
5.97596
6.24405
6.50824
6.76833
7.02417
7.27557
7.52241
7.76453
8.00182
8.23416
8.46146
8.68361
8.90055
9.11218
9.31846
9.51934
9.7148
9.90482
10.0893
10.2684
10.4418
10.6098
10.7722
10.9292
11.0807
11.2268
11.3678
11.5033
11.6343
11.7567
11.884
11.9531
-6.71828
-6.72307
-6.73074
-6.73749
-6.74261
-6.74673
-6.75029
-6.75358
-6.75677
-6.76003
-6.7635
-6.76727
-6.77141
-6.776
-6.78107
-6.78668
-6.79286
-6.79965
-6.80709
-6.81521
-6.82404
-6.8336
-6.84391
-6.85501
-6.86689
-6.87958
-6.89308
-6.9074
-6.92252
-6.93844
-6.95516
-6.97267
-6.99095
-7.00999
-7.02979
-7.05033
-7.0716
-7.09358
-7.11626
-7.1396
-7.16357
-7.18814
-7.21326
-7.23889
-7.26499
-7.29151
-7.3184
-7.34561
-7.3731
-7.40081
-7.42868
-7.45666
-7.48467
-7.51266
-7.54052
-7.5682
-7.59559
-7.62259
-7.64911
-7.67503
-7.70024
-7.72462
-7.74802
-7.77032
-7.79137
-7.81102
-7.82911
-7.84548
-7.85996
-7.87238
-7.88256
-7.89031
-7.89546
-7.8978
-7.89716
-7.89332
-7.88611
-7.87531
-7.86074
-7.84219
-7.81947
-7.79238
-7.76074
-7.72435
-7.68302
-7.63658
-7.58485
-7.52766
-7.46484
-7.39625
-7.32175
-7.24118
-7.15442
-7.06134
-6.96185
-6.85585
-6.74324
-6.62396
-6.49794
-6.36515
-6.22554
-6.07908
-5.92577
-5.76562
-5.59863
-5.42484
-5.24431
-5.05709
-4.86325
-4.6629
-4.45613
-4.24307
-4.02385
-3.79862
-3.56755
-3.33081
-3.0886
-2.84111
-2.58856
-2.33118
-2.0692
-1.80287
-1.53245
-1.25821
-0.980425
-0.699395
-0.415403
-0.12875
0.160245
0.451266
0.744011
1.03819
1.33351
1.62963
1.92621
2.22291
2.51944
2.81548
3.11071
3.40484
3.69757
3.98861
4.27767
4.56448
4.84878
5.1303
5.4088
5.68405
5.95582
6.2239
6.48809
6.7482
7.00406
7.25551
7.5024
7.74459
7.98195
8.21438
8.44177
8.66402
8.88106
9.09281
9.29921
9.50021
9.69579
9.88593
10.0706
10.2497
10.4233
10.5913
10.7539
10.9108
11.0623
11.2082
11.3487
11.4835
11.6131
11.7332
11.8579
11.9196
-6.72101
-6.72594
-6.73378
-6.74081
-6.74627
-6.75077
-6.75473
-6.75839
-6.76196
-6.76559
-6.7694
-6.77351
-6.77798
-6.78288
-6.78827
-6.79418
-6.80067
-6.80775
-6.81548
-6.82386
-6.83295
-6.84275
-6.85329
-6.86458
-6.87665
-6.88949
-6.90313
-6.91755
-6.93277
-6.94877
-6.96555
-6.9831
-7.00141
-7.02047
-7.04028
-7.06081
-7.08205
-7.10399
-7.1266
-7.14987
-7.17376
-7.19824
-7.22327
-7.24883
-7.27486
-7.30133
-7.32818
-7.35537
-7.38285
-7.41058
-7.43849
-7.46653
-7.49462
-7.52269
-7.55067
-7.57846
-7.60599
-7.63314
-7.65982
-7.68591
-7.71129
-7.73584
-7.75943
-7.78191
-7.80313
-7.82295
-7.84121
-7.85773
-7.87236
-7.88492
-7.89523
-7.9031
-7.90834
-7.91078
-7.91021
-7.90643
-7.89926
-7.88849
-7.87393
-7.85538
-7.83265
-7.80553
-7.77385
-7.7374
-7.69602
-7.6495
-7.59769
-7.54042
-7.47751
-7.40882
-7.33421
-7.25355
-7.16668
-7.07351
-6.97392
-6.86782
-6.75512
-6.63575
-6.50966
-6.37679
-6.2371
-6.09058
-5.93721
-5.777
-5.60997
-5.43615
-5.25559
-5.06835
-4.87451
-4.67417
-4.46742
-4.2544
-4.03522
-3.81005
-3.57905
-3.34239
-3.10026
-2.85288
-2.60044
-2.34317
-2.08132
-1.81512
-1.54484
-1.27074
-0.993113
-0.712237
-0.428402
-0.141921
0.146892
0.437735
0.730303
1.02431
1.31946
1.61541
1.9118
2.20833
2.50469
2.80057
3.09565
3.38963
3.68222
3.97313
4.26206
4.54876
4.83295
5.11437
5.39279
5.66796
5.93967
6.2077
6.47185
6.73193
6.98778
7.23922
7.48611
7.72831
7.9657
8.19816
8.42559
8.64789
8.86499
9.0768
9.28327
9.48435
9.68001
9.87022
10.0549
10.2341
10.4078
10.5759
10.7384
10.8953
11.0467
11.1923
11.3323
11.4661
11.5944
11.7122
11.8346
11.8899
-6.72612
-6.73102
-6.73878
-6.74585
-6.75148
-6.7562
-6.76042
-6.76435
-6.76819
-6.77208
-6.77615
-6.78051
-6.78523
-6.79036
-6.79597
-6.8021
-6.80879
-6.81607
-6.82398
-6.83254
-6.84179
-6.85173
-6.8624
-6.87381
-6.88598
-6.89891
-6.91262
-6.9271
-6.94236
-6.9584
-6.97521
-6.99278
-7.01111
-7.03019
-7.05
-7.07053
-7.09178
-7.11371
-7.13631
-7.15957
-7.18344
-7.20791
-7.23295
-7.25852
-7.28457
-7.31106
-7.33796
-7.36522
-7.39278
-7.42061
-7.44863
-7.47679
-7.50502
-7.53324
-7.56138
-7.58935
-7.61705
-7.64439
-7.67125
-7.69752
-7.72309
-7.74782
-7.77157
-7.79421
-7.81559
-7.83555
-7.85393
-7.87057
-7.88529
-7.89793
-7.90829
-7.9162
-7.92147
-7.9239
-7.92331
-7.9195
-7.91227
-7.90142
-7.88677
-7.86811
-7.84525
-7.81799
-7.78615
-7.74954
-7.70797
-7.66127
-7.60926
-7.55178
-7.48867
-7.41977
-7.34495
-7.26406
-7.17699
-7.08361
-6.98381
-6.87751
-6.76462
-6.64506
-6.51878
-6.38573
-6.24588
-6.0992
-5.94569
-5.78534
-5.61819
-5.44426
-5.2636
-5.07628
-4.88238
-4.68198
-4.47519
-4.26214
-4.04296
-3.8178
-3.58682
-3.3502
-3.10813
-2.86081
-2.60845
-2.35127
-2.08951
-1.82342
-1.55327
-1.2793
-1.00182
-0.721089
-0.437421
-0.151118
0.137513
0.428173
0.720553
1.01438
1.30935
1.6051
1.9013
2.19764
2.49381
2.78949
3.08439
3.37819
3.67061
3.96135
4.25012
4.53667
4.82071
5.102
5.38029
5.65535
5.92695
6.19488
6.45894
6.71895
6.97473
7.22612
7.47297
7.71513
7.9525
8.18494
8.41236
8.63467
8.85178
9.06361
9.27011
9.47123
9.66694
9.85719
10.042
10.2212
10.3949
10.563
10.7254
10.8823
11.0334
11.1786
11.318
11.4509
11.5777
11.6934
11.8137
11.8636
-6.73328
-6.73801
-6.74548
-6.75239
-6.75801
-6.76281
-6.76714
-6.77121
-6.7752
-6.77925
-6.78347
-6.78797
-6.79281
-6.79807
-6.80379
-6.81001
-6.81679
-6.82415
-6.83213
-6.84076
-6.85006
-6.86005
-6.87077
-6.88222
-6.89442
-6.90738
-6.9211
-6.9356
-6.95088
-6.96692
-6.98374
-7.00132
-7.01966
-7.03876
-7.05859
-7.07915
-7.10042
-7.12239
-7.14503
-7.16833
-7.19226
-7.21679
-7.24188
-7.26751
-7.29364
-7.32023
-7.34725
-7.37464
-7.40235
-7.43033
-7.45852
-7.48685
-7.51526
-7.54366
-7.57198
-7.60014
-7.62802
-7.65554
-7.68257
-7.70901
-7.73473
-7.7596
-7.78348
-7.80623
-7.8277
-7.84773
-7.86616
-7.88282
-7.89755
-7.91016
-7.92049
-7.92833
-7.93351
-7.93583
-7.93511
-7.93114
-7.92374
-7.9127
-7.89783
-7.87895
-7.85584
-7.82833
-7.79622
-7.75932
-7.71747
-7.67047
-7.61816
-7.56038
-7.49695
-7.42775
-7.35262
-7.27144
-7.18407
-7.09039
-6.99031
-6.88373
-6.77057
-6.65076
-6.52424
-6.39095
-6.25088
-6.10399
-5.95028
-5.78975
-5.62243
-5.44836
-5.26757
-5.08014
-4.88614
-4.68567
-4.47883
-4.26574
-4.04654
-3.82137
-3.59041
-3.35383
-3.11182
-2.86457
-2.6123
-2.35523
-2.09359
-1.82763
-1.55762
-1.28381
-1.00649
-0.725947
-0.442475
-0.156377
0.13205
0.422495
0.714653
1.00827
1.30301
1.59852
1.89448
2.19058
2.48652
2.78197
3.07664
3.37022
3.66241
3.95293
4.24149
4.52783
4.81168
5.09278
5.3709
5.64579
5.91723
6.18501
6.44894
6.70883
6.96449
7.21578
7.46253
7.70462
7.94191
8.1743
8.40167
8.62394
8.84102
9.05284
9.25934
9.46046
9.65618
9.84644
10.0312
10.2105
10.3841
10.5522
10.7146
10.8712
11.0221
11.1669
11.3056
11.4375
11.563
11.6766
11.7949
11.8404
-6.7421
-6.74655
-6.75357
-6.76015
-6.76561
-6.77034
-6.77464
-6.77872
-6.78272
-6.78678
-6.79102
-6.79552
-6.80036
-6.80559
-6.81129
-6.81749
-6.82424
-6.83158
-6.83953
-6.84812
-6.85739
-6.86736
-6.87804
-6.88946
-6.90163
-6.91456
-6.92826
-6.94273
-6.95798
-6.97402
-6.99083
-7.00842
-7.02677
-7.04589
-7.06575
-7.08636
-7.10769
-7.12972
-7.15243
-7.17581
-7.19981
-7.22443
-7.24963
-7.27538
-7.30164
-7.32839
-7.35557
-7.38314
-7.41103
-7.43919
-7.46756
-7.49606
-7.52464
-7.55321
-7.58169
-7.60999
-7.63802
-7.66566
-7.69281
-7.71934
-7.74514
-7.77006
-7.79396
-7.81672
-7.83816
-7.85815
-7.8765
-7.89307
-7.90767
-7.92014
-7.93029
-7.93793
-7.94289
-7.94497
-7.94398
-7.93973
-7.93202
-7.92067
-7.90547
-7.88624
-7.86278
-7.8349
-7.80241
-7.76514
-7.7229
-7.67552
-7.62282
-7.56465
-7.50085
-7.43127
-7.35577
-7.27423
-7.18651
-7.0925
-6.99209
-6.88519
-6.77173
-6.65163
-6.52483
-6.39129
-6.25098
-6.10387
-5.94996
-5.78926
-5.62178
-5.44757
-5.26666
-5.07914
-4.88506
-4.68454
-4.47767
-4.26457
-4.04538
-3.82026
-3.58935
-3.35285
-3.11093
-2.86379
-2.61165
-2.35472
-2.09325
-1.82748
-1.55766
-1.28406
-1.00696
-0.726665
-0.443448
-0.157604
0.130561
0.420725
0.712606
1.00595
1.3004
1.5956
1.89126
2.18706
2.48269
2.77784
3.07222
3.3655
3.65741
3.94765
4.23594
4.52201
4.8056
5.08646
5.36433
5.639
5.91023
6.17781
6.44155
6.70125
6.95675
7.20789
7.4545
7.69646
7.93363
8.16591
8.3932
8.61539
8.83241
9.04418
9.25064
9.45174
9.64744
9.83769
10.0225
10.2017
10.3753
10.5433
10.7056
10.8621
11.0126
11.157
11.295
11.4259
11.5499
11.6617
11.7781
11.8199
-6.75217
-6.75628
-6.76273
-6.76886
-6.77402
-6.77852
-6.78264
-6.78656
-6.79041
-6.79433
-6.79842
-6.80277
-6.80746
-6.81256
-6.81811
-6.82418
-6.83079
-6.83799
-6.84582
-6.85429
-6.86345
-6.87331
-6.88389
-6.89522
-6.9073
-6.92016
-6.93379
-6.94821
-6.96343
-6.97944
-6.99625
-7.01384
-7.03221
-7.05135
-7.07125
-7.09189
-7.11327
-7.13536
-7.15815
-7.18161
-7.20572
-7.23045
-7.25579
-7.28169
-7.30812
-7.33503
-7.36237
-7.39009
-7.41814
-7.44644
-7.47493
-7.50354
-7.53222
-7.56087
-7.58942
-7.61778
-7.64584
-7.67349
-7.70062
-7.72711
-7.75283
-7.77765
-7.80143
-7.82403
-7.84529
-7.86507
-7.88319
-7.89949
-7.91381
-7.92597
-7.93578
-7.94308
-7.94767
-7.94936
-7.94797
-7.94331
-7.93518
-7.92339
-7.90775
-7.88807
-7.86416
-7.83583
-7.8029
-7.76518
-7.7225
-7.67467
-7.62155
-7.56295
-7.49873
-7.42875
-7.35287
-7.27096
-7.18288
-7.08852
-6.98778
-6.88058
-6.76682
-6.64645
-6.5194
-6.38563
-6.24511
-6.09781
-5.94374
-5.78289
-5.6153
-5.44099
-5.26002
-5.07245
-4.87836
-4.67784
-4.47099
-4.25795
-4.03885
-3.81382
-3.58305
-3.34669
-3.10494
-2.858
-2.60607
-2.34937
-2.08814
-1.82263
-1.5531
-1.2798
-1.00303
-0.723059
-0.44017
-0.154661
0.133144
0.422935
0.714468
1.00746
1.30152
1.59631
1.89158
2.18699
2.48224
2.77701
3.07101
3.36392
3.65546
3.94534
4.23329
4.51902
4.80228
5.08281
5.36038
5.63475
5.9057
6.17302
6.43651
6.69598
6.95126
7.20218
7.44861
7.69039
7.9274
8.15954
8.38669
8.60877
8.8257
9.03739
9.24379
9.44484
9.6405
9.83072
10.0154
10.1946
10.3682
10.5361
10.6983
10.8545
11.0047
11.1486
11.2859
11.4158
11.5385
11.6485
11.763
11.8021
-6.76316
-6.76688
-6.77271
-6.77829
-6.783
-6.78711
-6.79088
-6.79446
-6.79798
-6.80158
-6.80536
-6.80941
-6.81382
-6.81864
-6.82393
-6.82974
-6.83612
-6.8431
-6.85071
-6.85899
-6.86796
-6.87765
-6.88808
-6.89927
-6.91124
-6.92399
-6.93753
-6.95187
-6.96701
-6.98296
-6.99972
-7.01727
-7.03562
-7.05476
-7.07467
-7.09534
-7.11674
-7.13888
-7.16174
-7.1853
-7.20952
-7.23438
-7.25983
-7.28583
-7.31235
-7.33934
-7.36674
-7.39451
-7.42257
-7.45087
-7.47935
-7.50792
-7.53653
-7.5651
-7.59355
-7.62178
-7.64968
-7.67714
-7.70406
-7.73031
-7.75576
-7.78028
-7.80373
-7.82598
-7.84686
-7.86624
-7.88394
-7.89981
-7.91368
-7.92537
-7.93471
-7.94151
-7.9456
-7.94679
-7.94489
-7.93972
-7.93107
-7.91877
-7.90262
-7.88243
-7.85801
-7.82919
-7.79576
-7.75756
-7.71441
-7.66613
-7.61257
-7.55355
-7.48893
-7.41857
-7.34232
-7.26005
-7.17164
-7.07698
-6.97596
-6.86849
-6.7545
-6.63391
-6.50668
-6.37274
-6.23208
-6.08467
-5.93052
-5.76961
-5.60199
-5.42768
-5.24673
-5.05921
-4.8652
-4.66479
-4.45809
-4.2452
-4.02629
-3.80147
-3.57094
-3.33484
-3.09338
-2.84674
-2.59513
-2.33878
-2.07792
-1.81279
-1.54365
-1.27078
-0.994446
-0.714905
-0.432455
-0.147406
0.139916
0.429231
0.72032
1.01284
1.30637
1.60067
1.89544
2.19036
2.48512
2.77941
3.07293
3.36537
3.65645
3.94588
4.23338
4.51869
4.80154
5.08167
5.35886
5.63286
5.90346
6.17044
6.43361
6.69279
6.94778
7.19845
7.44463
7.68619
7.923
8.15495
8.38194
8.60387
8.82067
9.03226
9.23857
9.43955
9.63516
9.82533
10.01
10.1892
10.3627
10.5305
10.6925
10.8485
10.9984
11.1418
11.2783
11.4072
11.5287
11.637
11.7496
11.7866
-6.77525
-6.77859
-6.7838
-6.78874
-6.79285
-6.79637
-6.79956
-6.80256
-6.80554
-6.80861
-6.81188
-6.81546
-6.81941
-6.82381
-6.8287
-6.83414
-6.84017
-6.84683
-6.85414
-6.86214
-6.87084
-6.88029
-6.89048
-6.90145
-6.91321
-6.92576
-6.93913
-6.95331
-6.9683
-6.98412
-7.00074
-7.01817
-7.03642
-7.05547
-7.07533
-7.09596
-7.11735
-7.13948
-7.16232
-7.18586
-7.21005
-7.23486
-7.26025
-7.28616
-7.31257
-7.33942
-7.36666
-7.39423
-7.42208
-7.45014
-7.47835
-7.50665
-7.53497
-7.56323
-7.59134
-7.61919
-7.64668
-7.67371
-7.70016
-7.72592
-7.75086
-7.77485
-7.79775
-7.81944
-7.83975
-7.85854
-7.87565
-7.89092
-7.90418
-7.91527
-7.924
-7.93021
-7.9337
-7.9343
-7.93181
-7.92606
-7.91685
-7.90399
-7.8873
-7.86659
-7.84166
-7.81234
-7.77844
-7.73978
-7.6962
-7.64751
-7.59356
-7.53419
-7.46924
-7.39856
-7.32202
-7.23948
-7.15083
-7.05594
-6.95473
-6.84711
-6.73298
-6.61229
-6.48498
-6.351
-6.21032
-6.06293
-5.90882
-5.748
-5.58048
-5.40631
-5.22553
-5.03821
-4.84442
-4.64426
-4.43784
-4.22527
-4.0067
-3.78225
-3.55211
-3.31643
-3.0754
-2.82923
-2.5781
-2.32226
-2.06192
-1.79734
-1.52878
-1.25648
-0.980712
-0.701752
-0.419905
-0.135483
0.151204
0.439922
0.730425
1.02229
1.31517
1.60882