/*--------------------------------*- C++ -*----------------------------------*\
  =========                 |
  \\      /  F ield         | OpenFOAM: The Open Source CFD Toolbox
   \\    /   O peration     | Website:  https://openfoam.org
    \\  /    A nd           | Version:  13
     \\/     M anipulation  |
\*---------------------------------------------------------------------------*/
FoamFile
{
    format      ascii;
    class       surfaceScalarField;
    location    "285";
    object      phi;
}
// * * * * * * * * * * * * * * * * * * * * * * * * * * * * * * * * * * * * * //

dimensions      [0 3 -1 0 0 0 0];

internalField   nonuniform List<scalar> 
24170
(
3.1247e-06
6.3709e-08
3.04345e-06
8.12505e-08
2.9724e-06
7.10495e-08
2.90514e-06
6.72604e-08
2.84153e-06
6.36053e-08
2.78452e-06
5.70095e-08
2.73528e-06
4.92451e-08
2.69328e-06
4.1996e-08
2.65752e-06
3.57596e-08
2.62698e-06
3.05383e-08
2.60071e-06
2.627e-08
2.57788e-06
2.28324e-08
2.55783e-06
2.00455e-08
2.54001e-06
1.7827e-08
2.52406e-06
1.59503e-08
2.5091e-06
1.49516e-08
2.49557e-06
1.35352e-08
1.83337e-08
2.47724e-06
3.45677e-06
2.41853e-08
3.45868e-06
7.93424e-08
3.45003e-06
7.97011e-08
3.4375e-06
7.9786e-08
3.42245e-06
7.86561e-08
3.40531e-06
7.41458e-08
3.38636e-06
6.81977e-08
3.36613e-06
6.22287e-08
3.34525e-06
5.66399e-08
3.3243e-06
5.14913e-08
3.30375e-06
4.68116e-08
3.28391e-06
4.26781e-08
3.26496e-06
3.8991e-08
3.24697e-06
3.5821e-08
3.23003e-06
3.28923e-08
3.21401e-06
3.09644e-08
3.19926e-06
2.82866e-08
2.9562e-08
3.18803e-06
3.66865e-06
1.80494e-08
3.68009e-06
6.79059e-08
3.68627e-06
7.35178e-08
3.69005e-06
7.60067e-08
3.69133e-06
7.73734e-08
3.6901e-06
7.53772e-08
3.68679e-06
7.15141e-08
3.68185e-06
6.71695e-08
3.67565e-06
6.28328e-08
3.66851e-06
5.86314e-08
3.66069e-06
5.46344e-08
3.65243e-06
5.09414e-08
3.6439e-06
4.75175e-08
3.63528e-06
4.44448e-08
3.62661e-06
4.15555e-08
3.61826e-06
3.93187e-08
3.60974e-06
3.68021e-08
3.58497e-08
3.60346e-06
3.92612e-06
1.73174e-08
3.93643e-06
5.75928e-08
3.94315e-06
6.67972e-08
3.94863e-06
7.0525e-08
3.95294e-06
7.30728e-08
3.95576e-06
7.25485e-08
3.95733e-06
6.99454e-08
3.95789e-06
6.66091e-08
3.95763e-06
6.30957e-08
3.95669e-06
5.95723e-08
3.9552e-06
5.61239e-08
3.95328e-06
5.28574e-08
3.95103e-06
4.9772e-08
3.94854e-06
4.69342e-08
3.94584e-06
4.42549e-08
3.94319e-06
4.19706e-08
3.94034e-06
3.9651e-08
3.78274e-08
3.93836e-06
4.20824e-06
1.62085e-08
4.21616e-06
4.96729e-08
4.22193e-06
6.10221e-08
4.22706e-06
6.53913e-08
4.23182e-06
6.83201e-08
4.23577e-06
6.8591e-08
4.23892e-06
6.68005e-08
4.24137e-06
6.41545e-08
4.24325e-06
6.12224e-08
4.24463e-06
5.81887e-08
4.24561e-06
5.51494e-08
4.24625e-06
5.22091e-08
4.24663e-06
4.93926e-08
4.24682e-06
4.67497e-08
4.24683e-06
4.42393e-08
4.24684e-06
4.19664e-08
4.24676e-06
3.97257e-08
3.76083e-08
4.24698e-06
4.51066e-06
1.46338e-08
4.51692e-06
4.3413e-08
4.52223e-06
5.5717e-08
4.52708e-06
6.0537e-08
4.53182e-06
6.35777e-08
4.53609e-06
6.43231e-08
4.53977e-06
6.31163e-08
4.54294e-06
6.0986e-08
4.54567e-06
5.84931e-08
4.54803e-06
5.58346e-08
4.55006e-06
5.3117e-08
4.55183e-06
5.04383e-08
4.55338e-06
4.78407e-08
4.55477e-06
4.53607e-08
4.55603e-06
4.29837e-08
4.55725e-06
4.07463e-08
4.55843e-06
3.85433e-08
3.63407e-08
4.5597e-06
4.83428e-06
1.30757e-08
4.83963e-06
3.8062e-08
4.84478e-06
5.0565e-08
4.8495e-06
5.58132e-08
4.85416e-06
5.89204e-08
4.8585e-06
5.99811e-08
4.8624e-06
5.92217e-08
4.86588e-06
5.74999e-08
4.86902e-06
5.53574e-08
4.87185e-06
5.30027e-08
4.87442e-06
5.05497e-08
4.87677e-06
4.8091e-08
4.87893e-06
4.5678e-08
4.88095e-06
4.334e-08
4.88286e-06
4.10753e-08
4.88472e-06
3.88891e-08
4.88654e-06
3.6723e-08
3.45231e-08
4.88835e-06
5.18101e-06
1.16448e-08
5.18575e-06
3.33285e-08
5.19076e-06
4.55522e-08
5.19542e-06
5.11553e-08
5.20002e-06
5.43208e-08
5.20439e-06
5.56023e-08
5.20841e-06
5.52036e-08
5.21209e-06
5.38258e-08
5.21546e-06
5.19802e-08
5.21858e-06
4.98859e-08
5.22147e-06
4.76615e-08
5.22416e-06
4.53963e-08
5.2267e-06
4.31456e-08
5.2291e-06
4.09368e-08
5.2314e-06
3.8774e-08
5.23364e-06
3.66523e-08
5.23582e-06
3.45365e-08
3.23855e-08
5.23796e-06
5.55267e-06
1.03111e-08
5.55688e-06
2.91207e-08
5.56169e-06
4.07403e-08
5.5663e-06
4.6546e-08
5.57087e-06
4.97506e-08
5.57529e-06
5.11848e-08
5.57941e-06
5.10821e-08
5.58323e-06
5.00055e-08
5.58679e-06
4.84234e-08
5.59011e-06
4.65626e-08
5.59323e-06
4.45447e-08
5.59617e-06
4.2457e-08
5.59895e-06
4.03563e-08
5.60162e-06
3.82709e-08
5.60419e-06
3.62087e-08
5.60667e-06
3.41646e-08
5.60909e-06
3.2117e-08
3.00451e-08
5.61143e-06
5.95103e-06
9.06092e-09
5.95478e-06
2.53702e-08
5.95935e-06
3.61641e-08
5.96391e-06
4.19914e-08
5.96846e-06
4.52017e-08
5.97291e-06
4.67331e-08
5.97712e-06
4.68675e-08
5.98107e-06
4.6055e-08
5.98479e-06
4.47115e-08
5.98828e-06
4.30654e-08
5.99159e-06
4.12403e-08
5.99472e-06
3.93213e-08
5.99771e-06
3.73657e-08
6.00058e-06
3.54038e-08
6.00334e-06
3.34471e-08
6.00601e-06
3.14947e-08
6.00859e-06
2.95348e-08
2.75642e-08
6.01107e-06
6.37798e-06
7.89712e-09
6.38134e-06
2.20078e-08
6.38567e-06
3.18334e-08
6.39015e-06
3.75063e-08
6.39468e-06
4.0677e-08
6.39916e-06
4.22566e-08
6.40345e-06
4.25703e-08
6.40752e-06
4.19839e-08
6.41138e-06
4.08565e-08
6.41503e-06
3.94097e-08
6.41851e-06
3.77677e-08
6.42181e-06
3.60131e-08
6.42498e-06
3.42025e-08
6.42801e-06
3.23685e-08
6.43093e-06
3.05264e-08
6.43375e-06
2.86806e-08
6.43646e-06
2.68273e-08
2.49759e-08
6.43904e-06
5.74176e-06
6.97454e-09
5.74434e-06
1.94266e-08
5.74781e-06
2.8363e-08
5.75154e-06
3.37786e-08
5.75534e-06
3.68744e-08
5.75913e-06
3.8462e-08
5.76282e-06
3.88834e-08
5.76635e-06
3.84566e-08
5.76971e-06
3.74944e-08
5.77291e-06
3.62055e-08
5.77597e-06
3.47119e-08
5.77889e-06
3.30944e-08
5.78168e-06
3.14083e-08
5.78436e-06
2.96879e-08
5.78694e-06
2.79513e-08
5.78941e-06
2.62074e-08
5.79178e-06
2.44572e-08
2.27194e-08
5.79404e-06
6.99914e-06
5.99348e-09
7.00187e-06
1.66955e-08
7.00563e-06
2.4598e-08
7.0098e-06
2.96116e-08
7.01412e-06
3.25538e-08
7.01848e-06
3.41055e-08
7.02275e-06
3.46056e-08
7.02688e-06
3.43266e-08
7.03085e-06
3.35315e-08
7.03464e-06
3.24104e-08
7.03827e-06
3.10804e-08
7.04175e-06
2.96184e-08
7.04508e-06
2.80783e-08
7.04827e-06
2.6495e-08
7.05133e-06
2.48897e-08
7.05427e-06
2.32753e-08
7.05707e-06
2.16573e-08
2.00607e-08
7.05973e-06
8.53188e-06
4.96182e-09
8.53473e-06
1.38415e-08
8.53876e-06
2.05661e-08
8.54336e-06
2.50126e-08
8.54822e-06
2.76971e-08
8.55318e-06
2.91501e-08
8.5581e-06
2.96835e-08
8.5629e-06
2.95264e-08
8.56754e-06
2.88918e-08
8.572e-06
2.79439e-08
8.57629e-06
2.67906e-08
8.58041e-06
2.55039e-08
8.58435e-06
2.4134e-08
8.58813e-06
2.2716e-08
8.59175e-06
2.12729e-08
8.5952e-06
1.98206e-08
8.59849e-06
1.83683e-08
1.6944e-08
8.60161e-06
1.04003e-05
3.88902e-09
1.04032e-05
1.08838e-08
1.04075e-05
1.62894e-08
1.04125e-05
1.99908e-08
1.0418e-05
2.22885e-08
1.04235e-05
2.35598e-08
1.04292e-05
2.40644e-08
1.04347e-05
2.39887e-08
1.04401e-05
2.34965e-08
1.04453e-05
2.2721e-08
1.04504e-05
2.17554e-08
1.04552e-05
2.06634e-08
1.04598e-05
1.94904e-08
1.04643e-05
1.82694e-08
1.04685e-05
1.70234e-08
1.04726e-05
1.577e-08
1.04764e-05
1.452e-08
1.33019e-08
1.04801e-05
1.26779e-05
2.78023e-09
1.2681e-05
7.81721e-09
1.26855e-05
1.17665e-08
1.26909e-05
1.45413e-08
1.26969e-05
1.63018e-08
1.27032e-05
1.72869e-08
1.27096e-05
1.7686e-08
1.27159e-05
1.76378e-08
1.27222e-05
1.72596e-08
1.27282e-05
1.66489e-08
1.27341e-05
1.58787e-08
1.27398e-05
1.50007e-08
1.27452e-05
1.40526e-08
1.27504e-05
1.30625e-08
1.27554e-05
1.20516e-08
1.27601e-05
1.10363e-08
1.27646e-05
1.00272e-08
9.05104e-09
1.27689e-05
1.54543e-05
1.62502e-09
1.54576e-05
4.59581e-09
1.54624e-05
6.94024e-09
1.54683e-05
8.60523e-09
1.5475e-05
9.6646e-09
1.5482e-05
1.02431e-08
1.54892e-05
1.04498e-08
1.54965e-05
1.03684e-08
1.55037e-05
1.00694e-08
1.55107e-05
9.61241e-09
1.55176e-05
9.04449e-09
1.55242e-05
8.40051e-09
1.55305e-05
7.70686e-09
1.55366e-05
6.984e-09
1.55424e-05
6.24796e-09
1.55479e-05
5.5119e-09
1.55532e-05
4.784e-09
4.08713e-09
1.55581e-05
1.88389e-05
3.83574e-10
1.88424e-05
1.09565e-09
1.88477e-05
1.63753e-09
1.88543e-05
1.99254e-09
1.88618e-05
2.18048e-09
1.88698e-05
2.22861e-09
1.88781e-05
2.15845e-09
1.88865e-05
1.98966e-09
1.88948e-05
1.74243e-09
1.8903e-05
1.43532e-09
1.89109e-05
1.08382e-09
1.89186e-05
7.00914e-10
1.8926e-05
2.97705e-10
1.89331e-05
-1.16232e-10
1.89399e-05
-5.32748e-10
1.89464e-05
-9.44446e-10
1.89525e-05
-1.34704e-09
-1.72333e-09
1.89583e-05
2.29648e-05
-1.04505e-09
2.29688e-05
-2.97206e-09
2.2975e-05
-4.56096e-09
2.29828e-05
-5.77261e-09
2.29916e-05
-6.62766e-09
2.3001e-05
-7.21332e-09
2.30108e-05
-7.61753e-09
2.30207e-05
-7.8949e-09
2.30305e-05
-8.08179e-09
2.30402e-05
-8.20928e-09
2.30496e-05
-8.30092e-09
2.30586e-05
-8.37102e-09
2.30674e-05
-8.42735e-09
2.30757e-05
-8.47412e-09
2.30837e-05
-8.51332e-09
2.30913e-05
-8.54505e-09
2.30985e-05
-8.56998e-09
-8.5777e-09
2.31054e-05
1.68118e-05
-2.16644e-09
1.6815e-05
-6.13992e-09
1.68198e-05
-9.3871e-09
1.68258e-05
-1.17639e-08
1.68325e-05
-1.33301e-08
1.68396e-05
-1.4316e-08
1.68469e-05
-1.491e-08
1.68542e-05
-1.52151e-08
1.68615e-05
-1.53098e-08
1.68685e-05
-1.52659e-08
1.68753e-05
-1.51361e-08
1.68819e-05
-1.49533e-08
1.68882e-05
-1.4738e-08
1.68943e-05
-1.4504e-08
1.69e-05
-1.426e-08
1.69055e-05
-1.40107e-08
1.69107e-05
-1.37595e-08
-1.34999e-08
1.69156e-05
1.46356e-05
-3.24319e-09
1.46387e-05
-9.22421e-09
1.46434e-05
-1.41002e-08
1.46492e-05
-1.75034e-08
1.46555e-05
-1.96081e-08
1.4662e-05
-2.087e-08
1.46687e-05
-2.15601e-08
1.46753e-05
-2.18123e-08
1.46817e-05
-2.17566e-08
1.4688e-05
-2.15098e-08
1.4694e-05
-2.1147e-08
1.46997e-05
-2.07129e-08
1.47052e-05
-2.02377e-08
1.47105e-05
-1.97425e-08
1.47154e-05
-1.92407e-08
1.47202e-05
-1.87398e-08
1.47247e-05
-1.82447e-08
-1.77517e-08
1.47289e-05
1.27411e-05
-4.25089e-09
1.27443e-05
-1.23502e-08
1.27491e-05
-1.89326e-08
1.27547e-05
-2.31466e-08
1.27607e-05
-2.55805e-08
1.27669e-05
-2.70183e-08
1.2773e-05
-2.77211e-08
1.2779e-05
-2.78355e-08
1.27849e-05
-2.7568e-08
1.27904e-05
-2.70838e-08
1.27958e-05
-2.64721e-08
1.28008e-05
-2.57843e-08
1.28056e-05
-2.50572e-08
1.28102e-05
-2.43166e-08
1.28146e-05
-2.35781e-08
1.28187e-05
-2.285e-08
1.28226e-05
-2.21372e-08
-2.14371e-08
1.28262e-05
1.10918e-05
-5.08786e-09
1.1095e-05
-1.55764e-08
1.11001e-05
-2.40667e-08
1.11057e-05
-2.87666e-08
1.11115e-05
-3.13051e-08
1.11173e-05
-3.28226e-08
1.1123e-05
-3.34415e-08
1.11285e-05
-3.33394e-08
1.11338e-05
-3.28194e-08
1.11387e-05
-3.20791e-08
1.11435e-05
-3.12097e-08
1.1148e-05
-3.02676e-08
1.11522e-05
-2.92961e-08
1.11562e-05
-2.83236e-08
1.116e-05
-2.73659e-08
1.11636e-05
-2.64307e-08
1.1167e-05
-2.55225e-08
-2.46389e-08
1.11702e-05
9.65579e-06
-5.66823e-09
9.65924e-06
-1.90183e-08
9.66461e-06
-2.94369e-08
9.67011e-06
-3.42653e-08
9.67566e-06
-3.68553e-08
9.68121e-06
-3.83759e-08
9.68654e-06
-3.87708e-08
9.69156e-06
-3.83655e-08
9.69631e-06
-3.75634e-08
9.70079e-06
-3.65585e-08
9.70501e-06
-3.54297e-08
9.70898e-06
-3.42365e-08
9.71271e-06
-3.30268e-08
9.71621e-06
-3.18306e-08
9.71951e-06
-3.0663e-08
9.72261e-06
-2.95314e-08
9.72553e-06
-2.84378e-08
-2.73786e-08
9.72827e-06
8.40527e-06
-5.58439e-09
8.40962e-06
-2.33739e-08
8.41491e-06
-3.4719e-08
8.41996e-06
-3.93224e-08
8.42535e-06
-4.22448e-08
8.43078e-06
-4.38017e-08
8.43587e-06
-4.38663e-08
8.44058e-06
-4.30755e-08
8.44495e-06
-4.19322e-08
8.44901e-06
-4.06118e-08
8.45276e-06
-3.91831e-08
8.45623e-06
-3.7709e-08
8.45944e-06
-3.62392e-08
8.46242e-06
-3.48022e-08
8.46517e-06
-3.34129e-08
8.46771e-06
-3.20779e-08
8.47007e-06
-3.07989e-08
-2.95725e-08
8.47227e-06
7.31452e-06
-2.82205e-09
7.32129e-06
-3.01427e-08
7.3269e-06
-4.03322e-08
7.33189e-06
-4.43132e-08
7.33734e-06
-4.76858e-08
7.34269e-06
-4.91527e-08
7.34758e-06
-4.8755e-08
7.35198e-06
-4.74832e-08
7.35594e-06
-4.58938e-08
7.35948e-06
-4.41436e-08
7.3626e-06
-4.23118e-08
7.36537e-06
-4.04706e-08
7.3678e-06
-3.86718e-08
7.36994e-06
-3.69399e-08
7.37181e-06
-3.52894e-08
7.37346e-06
-3.37237e-08
7.3749e-06
-3.2242e-08
-3.08361e-08
7.37617e-06
6.3626e-06
4.64866e-09
6.37245e-06
-4.00011e-08
6.38003e-06
-4.79121e-08
6.38667e-06
-5.09483e-08
6.39287e-06
-5.38924e-08
6.39808e-06
-5.43574e-08
6.40226e-06
-5.29397e-08
6.40565e-06
-5.08649e-08
6.40836e-06
-4.86084e-08
6.41047e-06
-4.62552e-08
6.41204e-06
-4.38815e-08
6.41314e-06
-4.15647e-08
6.41382e-06
-3.93533e-08
6.41414e-06
-3.72673e-08
6.41417e-06
-3.53188e-08
6.41396e-06
-3.3506e-08
6.41354e-06
-3.18287e-08
-3.02663e-08
6.41297e-06
5.5413e-06
8.81415e-09
5.55121e-06
-4.99127e-08
5.55951e-06
-5.62078e-08
5.56717e-06
-5.86135e-08
5.57341e-06
-6.01301e-08
5.57745e-06
-5.83957e-08
5.57942e-06
-5.49153e-08
5.57977e-06
-5.12107e-08
5.57885e-06
-4.76944e-08
5.57695e-06
-4.4353e-08
5.57427e-06
-4.12038e-08
5.571e-06
-3.82908e-08
5.56727e-06
-3.56226e-08
5.5632e-06
-3.31951e-08
5.55888e-06
-3.10031e-08
5.55441e-06
-2.90346e-08
5.54987e-06
-2.72921e-08
-2.57309e-08
5.54534e-06
4.86534e-06
-2.89234e-08
4.86853e-06
-5.30939e-08
4.86547e-06
-5.31488e-08
4.86066e-06
-5.38045e-08
4.85479e-06
-5.42647e-08
4.84718e-06
-5.07844e-08
4.83763e-06
-4.53649e-08
4.82647e-06
-4.00492e-08
4.81414e-06
-3.5362e-08
4.80108e-06
-3.1298e-08
4.78767e-06
-2.77968e-08
4.77419e-06
-2.48117e-08
4.76084e-06
-2.22678e-08
4.74775e-06
-2.01013e-08
4.73501e-06
-1.82624e-08
4.72269e-06
-1.67229e-08
4.71092e-06
-1.55189e-08
-1.51631e-08
4.70035e-06
4.17375e-06
4.12066e-06
4.06751e-06
4.01371e-06
3.95944e-06
3.90866e-06
3.86329e-06
3.82324e-06
3.78788e-06
3.75658e-06
3.72879e-06
3.70397e-06
3.68171e-06
3.6616e-06
3.64334e-06
3.62662e-06
3.6111e-06
3.59594e-06
1.01362e-08
-1.01488e-08
2.23933e-08
-1.22716e-08
3.11137e-08
-8.73938e-09
3.4856e-08
-3.75397e-09
3.34901e-08
1.34805e-09
2.76216e-08
5.85667e-09
1.81576e-08
9.44614e-09
6.00684e-09
1.21389e-08
-8.15547e-09
1.41459e-08
-2.3884e-08
1.57187e-08
-4.09161e-08
1.70192e-08
-5.90803e-08
1.81566e-08
-7.82965e-08
1.92062e-08
-9.85068e-08
2.02046e-08
-1.19681e-07
2.1167e-08
-1.41785e-07
2.20988e-08
-1.6479e-07
2.30008e-08
-1.88668e-07
2.38731e-08
-2.13387e-07
2.47144e-08
-2.38916e-07
2.55224e-08
-2.65213e-07
2.62931e-08
-2.92246e-07
2.70207e-08
-3.19951e-07
2.7699e-08
-3.4829e-07
2.83202e-08
-3.77175e-07
2.88801e-08
-4.06576e-07
2.93783e-08
-4.36405e-07
2.98269e-08
-4.66673e-07
3.02482e-08
-4.97352e-07
3.06815e-08
-5.28525e-07
3.11627e-08
-5.60246e-07
3.17294e-08
-5.92596e-07
3.2352e-08
-6.25582e-07
3.29976e-08
-6.59467e-07
3.38958e-08
-6.9446e-07
3.50033e-08
-7.30413e-07
3.59659e-08
-7.68274e-07
3.78676e-08
-8.08343e-07
4.00787e-08
-8.50116e-07
4.1774e-08
-8.98371e-07
4.82613e-08
-9.43037e-07
4.4664e-08
-9.7715e-07
3.41158e-08
-1.015e-06
3.7842e-08
-1.05632e-06
4.13207e-08
-1.09946e-06
4.31322e-08
-1.1429e-06
4.34386e-08
-1.18665e-06
4.37478e-08
-1.23057e-06
4.39131e-08
-1.27452e-06
4.39505e-08
-1.31841e-06
4.38893e-08
-1.36218e-06
4.3761e-08
-1.40577e-06
4.35843e-08
-1.44914e-06
4.33728e-08
-1.49228e-06
4.31343e-08
-1.53516e-06
4.28736e-08
-1.57776e-06
4.2593e-08
-1.62006e-06
4.2294e-08
-1.66204e-06
4.1976e-08
-1.70369e-06
4.16387e-08
-1.74497e-06
4.12803e-08
-1.78588e-06
4.08996e-08
-1.82638e-06
4.04944e-08
-1.86645e-06
4.00631e-08
-1.90606e-06
3.96033e-08
-1.94517e-06
3.91136e-08
-1.98377e-06
3.85915e-08
-2.02181e-06
3.8036e-08
-2.05926e-06
3.74446e-08
-2.09608e-06
3.6817e-08
-2.13224e-06
3.61507e-08
-2.16769e-06
3.54458e-08
-2.20239e-06
3.47002e-08
-2.23631e-06
3.39141e-08
-2.2694e-06
3.30858e-08
-2.30162e-06
3.22161e-08
-2.33293e-06
3.13034e-08
-2.36328e-06
3.03489e-08
-2.39264e-06
2.93514e-08
-2.42096e-06
2.83126e-08
-2.4482e-06
2.72309e-08
-2.47431e-06
2.61084e-08
-2.49926e-06
2.4944e-08
-2.52301e-06
2.37399e-08
-2.54551e-06
2.24944e-08
-2.56672e-06
2.12099e-08
-2.58661e-06
1.98849e-08
-2.60514e-06
1.85214e-08
-2.62226e-06
1.7117e-08
-2.63792e-06
1.56719e-08
-2.6521e-06
1.41832e-08
-2.66474e-06
1.26458e-08
-2.67579e-06
1.10546e-08
-2.6852e-06
9.40387e-09
-2.69288e-06
7.68622e-09
-2.69878e-06
5.88916e-09
-2.70277e-06
3.99536e-09
-2.70478e-06
2.00314e-09
-2.70477e-06
-1.16181e-11
-2.70294e-06
-1.83838e-09
-2.69947e-06
-3.47134e-09
-2.69442e-06
-5.06432e-09
-2.68778e-06
-6.64569e-09
-2.67956e-06
-8.2292e-09
-2.66976e-06
-9.81784e-09
-2.65837e-06
-1.14097e-08
-2.64538e-06
-1.3005e-08
-2.63079e-06
-1.46e-08
-2.61461e-06
-1.6195e-08
-2.59684e-06
-1.77862e-08
-2.57748e-06
-1.93742e-08
-2.55653e-06
-2.09549e-08
-2.53401e-06
-2.25289e-08
-2.50992e-06
-2.4092e-08
-2.48428e-06
-2.56449e-08
-2.4571e-06
-2.71832e-08
-2.42839e-06
-2.87078e-08
-2.39818e-06
-3.0214e-08
-2.36648e-06
-3.17025e-08
-2.3333e-06
-3.31687e-08
-2.29868e-06
-3.46139e-08
-2.26265e-06
-3.60345e-08
-2.22522e-06
-3.74308e-08
-2.18643e-06
-3.8798e-08
-2.1463e-06
-4.01359e-08
-2.10486e-06
-4.14393e-08
-2.06215e-06
-4.27101e-08
-2.0182e-06
-4.39446e-08
-1.97305e-06
-4.51454e-08
-1.92673e-06
-4.6308e-08
-1.87928e-06
-4.74342e-08
-1.83074e-06
-4.85216e-08
-1.78116e-06
-4.95677e-08
-1.73057e-06
-5.05643e-08
-1.67903e-06
-5.15186e-08
-1.62657e-06
-5.24308e-08
-1.57324e-06
-5.32973e-08
-1.5191e-06
-5.41148e-08
-1.46418e-06
-5.48841e-08
-1.40855e-06
-5.56049e-08
-1.35224e-06
-5.62769e-08
-1.29532e-06
-5.68996e-08
-1.23782e-06
-5.74718e-08
-1.17981e-06
-5.7994e-08
-1.12133e-06
-5.84653e-08
-1.06244e-06
-5.8887e-08
-1.00317e-06
-5.9258e-08
-9.43587e-07
-5.95801e-08
-8.83733e-07
-5.98525e-08
-8.23659e-07
-6.00772e-08
-7.63411e-07
-6.02535e-08
-7.03037e-07
-6.03842e-08
-6.42581e-07
-6.04685e-08
-5.82089e-07
-6.05097e-08
-5.21602e-07
-6.05071e-08
-4.61163e-07
-6.0464e-08
-4.00809e-07
-6.03798e-08
-3.40582e-07
-6.02572e-08
-2.80518e-07
-6.00954e-08
-2.20656e-07
-5.98978e-08
-1.61026e-07
-5.96654e-08
-1.01652e-07
-5.94122e-08
-4.2577e-08
-5.91131e-08
1.61245e-08
-5.87421e-08
7.44675e-08
-5.83805e-08
1.32413e-07
-5.79843e-08
1.89884e-07
-5.75073e-08
2.46891e-07
-5.70451e-08
3.0345e-07
-5.65936e-08
3.59559e-07
-5.61453e-08
4.1521e-07
-5.56858e-08
4.70375e-07
-5.51998e-08
5.25001e-07
-5.46598e-08
5.7899e-07
-5.40237e-08
6.3217e-07
-5.32138e-08
6.8422e-07
-5.20832e-08
7.34521e-07
-5.03327e-08
7.81742e-07
-4.72523e-08
8.22789e-07
-4.10765e-08
8.4966e-07
-2.6897e-08
1.79907e-08
8.31647e-07
8.72379e-09
-1.88824e-08
1.1515e-08
-1.50731e-08
9.53256e-09
-6.76671e-09
4.30661e-09
1.4655e-09
-3.45163e-09
9.09808e-09
-1.35023e-08
1.59013e-08
-2.58002e-08
2.17362e-08
-4.02547e-08
2.65876e-08
-5.66834e-08
3.05675e-08
-7.48307e-08
3.38609e-08
-9.44773e-08
3.66596e-08
-1.1545e-07
3.91245e-08
-1.37621e-07
4.1372e-08
-1.60897e-07
4.34777e-08
-1.85221e-07
4.54865e-08
-2.10549e-07
4.74239e-08
-2.36855e-07
4.9304e-08
-2.6412e-07
5.11353e-08
-2.92331e-07
5.29226e-08
-3.21482e-07
5.46689e-08
-3.51567e-07
5.63756e-08
-3.82596e-07
5.80431e-08
-4.14573e-07
5.96721e-08
-4.47526e-07
6.12638e-08
-4.81473e-07
6.28219e-08
-5.16459e-07
6.43537e-08
-5.52509e-07
6.58735e-08
-5.89674e-07
6.74028e-08
-6.27968e-07
6.89747e-08
-6.6744e-07
7.06303e-08
-7.08111e-07
7.24041e-08
-7.50055e-07
7.42985e-08
-7.93342e-07
7.6291e-08
-8.37789e-07
7.83504e-08
-8.83158e-07
8.03789e-08
-9.29478e-07
8.22942e-08
-9.759e-07
8.42935e-08
-1.02198e-06
8.61603e-08
-1.06784e-06
8.76354e-08
-1.10839e-06
8.88141e-08
-1.15081e-06
8.70879e-08
-1.20055e-06
8.38524e-08
-1.24641e-06
8.37048e-08
-1.28942e-06
8.43275e-08
-1.33091e-06
8.46146e-08
-1.37193e-06
8.44576e-08
-1.41237e-06
8.41865e-08
-1.4523e-06
8.38403e-08
-1.49178e-06
8.34256e-08
-1.53084e-06
8.29523e-08
-1.56951e-06
8.24306e-08
-1.6078e-06
8.18693e-08
-1.6457e-06
8.12745e-08
-1.68322e-06
8.06497e-08
-1.72035e-06
7.9996e-08
-1.75707e-06
7.93134e-08
-1.79338e-06
7.86002e-08
-1.82926e-06
7.78541e-08
-1.8647e-06
7.70721e-08
-1.89968e-06
7.62509e-08
-1.93417e-06
7.5387e-08
-1.96815e-06
7.44767e-08
-2.00161e-06
7.35164e-08
-2.03451e-06
7.25026e-08
-2.06683e-06
7.1432e-08
-2.09855e-06
7.03014e-08
-2.12962e-06
6.9108e-08
-2.16003e-06
6.78492e-08
-2.18974e-06
6.65228e-08
-2.21872e-06
6.51265e-08
-2.24693e-06
6.36589e-08
-2.27436e-06
6.21183e-08
-2.30095e-06
6.05038e-08
-2.32668e-06
5.88142e-08
-2.35151e-06
5.70492e-08
-2.37542e-06
5.52082e-08
-2.39837e-06
5.32917e-08
-2.42032e-06
5.12993e-08
-2.44125e-06
4.9232e-08
-2.46111e-06
4.70898e-08
-2.47988e-06
4.48739e-08
-2.49752e-06
4.25848e-08
-2.51401e-06
4.02238e-08
-2.52931e-06
3.77915e-08
-2.54339e-06
3.52894e-08
-2.55623e-06
3.27182e-08
-2.56779e-06
3.00795e-08
-2.57805e-06
2.73733e-08
-2.58697e-06
2.46011e-08
-2.59455e-06
2.17624e-08
-2.60076e-06
1.88572e-08
-2.60559e-06
1.58864e-08
-2.60904e-06
1.28522e-08
-2.61111e-06
9.75836e-09
-2.61183e-06
6.61104e-09
-2.61127e-06
3.42855e-09
-2.60952e-06
2.51163e-10
-2.60666e-06
-2.8719e-09
-2.60255e-06
-5.9607e-09
-2.59696e-06
-9.059e-09
-2.58986e-06
-1.21694e-08
-2.58122e-06
-1.52916e-08
-2.57104e-06
-1.84279e-08
-2.55929e-06
-2.15762e-08
-2.54598e-06
-2.47336e-08
-2.5311e-06
-2.78966e-08
-2.51464e-06
-3.10614e-08
-2.49662e-06
-3.42246e-08
-2.47704e-06
-3.73824e-08
-2.45588e-06
-4.05319e-08
-2.43318e-06
-4.3669e-08
-2.40892e-06
-4.67907e-08
-2.38312e-06
-4.9893e-08
-2.3558e-06
-5.29727e-08
-2.32696e-06
-5.60256e-08
-2.29662e-06
-5.90489e-08
-2.26479e-06
-6.20381e-08
-2.2315e-06
-6.49897e-08
-2.19677e-06
-6.78999e-08
-2.16061e-06
-7.07661e-08
-2.12306e-06
-7.35848e-08
-2.08414e-06
-7.6353e-08
-2.04388e-06
-7.90651e-08
-2.00231e-06
-8.17172e-08
-1.95944e-06
-8.43041e-08
-1.91533e-06
-8.68238e-08
-1.87e-06
-8.92732e-08
-1.82349e-06
-9.16523e-08
-1.77583e-06
-9.39581e-08
-1.72707e-06
-9.61905e-08
-1.67723e-06
-9.83461e-08
-1.62637e-06
-1.00417e-07
-1.57453e-06
-1.02394e-07
-1.52175e-06
-1.04285e-07
-1.46807e-06
-1.06091e-07
-1.41355e-06
-1.07806e-07
-1.35822e-06
-1.09423e-07
-1.30214e-06
-1.10944e-07
-1.24536e-06
-1.12367e-07
-1.18793e-06
-1.13692e-07
-1.1299e-06
-1.14918e-07
-1.07132e-06
-1.16044e-07
-1.01223e-06
-1.17069e-07
-9.52698e-07
-1.17994e-07
-8.92762e-07
-1.18818e-07
-8.32475e-07
-1.19542e-07
-7.71887e-07
-1.20166e-07
-7.11048e-07
-1.20692e-07
-6.50005e-07
-1.21121e-07
-5.88808e-07
-1.21455e-07
-5.27502e-07
-1.21695e-07
-4.66133e-07
-1.21845e-07
-4.04746e-07
-1.21906e-07
-3.43383e-07
-1.21882e-07
-2.82086e-07
-1.21774e-07
-2.20893e-07
-1.21587e-07
-1.59843e-07
-1.21322e-07
-9.89712e-08
-1.20984e-07
-3.83098e-08
-1.20576e-07
2.21139e-08
-1.20108e-07
8.22696e-08
-1.19586e-07
1.42138e-07
-1.19001e-07
2.01704e-07
-1.18326e-07
2.6087e-07
-1.17566e-07
3.19596e-07
-1.16729e-07
3.77918e-07
-1.15849e-07
4.35828e-07
-1.14974e-07
4.93323e-07
-1.14108e-07
5.50393e-07
-1.13235e-07
6.07023e-07
-1.12336e-07
6.63182e-07
-1.11378e-07
7.18814e-07
-1.10312e-07
7.73822e-07
-1.09051e-07
8.28038e-07
-1.07449e-07
8.81159e-07
-1.05225e-07
9.3265e-07
-1.01844e-07
9.81476e-07
-9.60967e-08
1.02594e-06
-8.55632e-08
1.0628e-06
-6.37648e-08
-1.1901e-08
1.09267e-06
2.73522e-11
-1.89167e-08
-5.98479e-09
-9.06782e-09
-1.461e-08
1.85259e-09
-2.49231e-08
1.1775e-08
-3.66175e-08
2.0788e-08
-4.96372e-08
2.89176e-08
-6.40487e-08
3.61436e-08
-7.99341e-08
4.24697e-08
-9.73308e-08
4.79603e-08
-1.16208e-07
5.27348e-08
-1.36491e-07
5.69389e-08
-1.58083e-07
6.07145e-08
-1.80896e-07
6.4181e-08
-2.04849e-07
6.74289e-08
-2.29887e-07
7.05218e-08
-2.55968e-07
7.35023e-08
-2.83064e-07
7.63981e-08
-3.11158e-07
7.92271e-08
-3.40238e-07
8.20012e-08
-3.70301e-07
8.47296e-08
-4.01345e-07
8.74187e-08
-4.33378e-07
9.00731e-08
-4.66404e-07
9.26961e-08
-5.00436e-07
9.52906e-08
-5.35477e-07
9.78603e-08
-5.71539e-07
1.0041e-07
-6.08612e-07
1.02944e-07
-6.46683e-07
1.05468e-07
-6.85692e-07
1.07983e-07
-7.25544e-07
1.10481e-07
-7.66085e-07
1.12947e-07
-8.07134e-07
1.15349e-07
-8.48478e-07
1.17639e-07
-8.89877e-07
1.19754e-07
-9.31119e-07
1.21624e-07
-9.72013e-07
1.23192e-07
-1.01218e-06
1.24467e-07
-1.0514e-06
1.25383e-07
-1.08953e-06
1.25762e-07
-1.12626e-06
1.25544e-07
-1.16356e-06
1.2439e-07
-1.20251e-06
1.22799e-07
-1.24068e-06
1.21869e-07
-1.27772e-06
1.21366e-07
-1.31395e-06
1.20845e-07
-1.34971e-06
1.20222e-07
-1.38508e-06
1.19556e-07
-1.4201e-06
1.18854e-07
-1.45479e-06
1.18117e-07
-1.48919e-06
1.17346e-07
-1.5233e-06
1.16541e-07
-1.55714e-06
1.15704e-07
-1.5907e-06
1.14834e-07
-1.62398e-06
1.1393e-07
-1.65698e-06
1.12989e-07
-1.68967e-06
1.12007e-07
-1.72206e-06
1.10982e-07
-1.75411e-06
1.09908e-07
-1.78582e-06
1.0878e-07
-1.81717e-06
1.07593e-07
-1.84813e-06
1.06342e-07
-1.87867e-06
1.05021e-07
-1.90879e-06
1.03626e-07
-1.93844e-06
1.02152e-07
-1.9676e-06
1.00594e-07
-1.99625e-06
9.89473e-08
-2.02435e-06
9.72087e-08
-2.05188e-06
9.53745e-08
-2.0788e-06
9.34416e-08
-2.10508e-06
9.14071e-08
-2.1307e-06
8.92688e-08
-2.1556e-06
8.70245e-08
-2.17978e-06
8.46729e-08
-2.20318e-06
8.22127e-08
-2.22577e-06
7.96431e-08
-2.24753e-06
7.69637e-08
-2.26842e-06
7.41747e-08
-2.28839e-06
7.12762e-08
-2.30743e-06
6.8269e-08
-2.3255e-06
6.51538e-08
-2.34256e-06
6.1932e-08
-2.35858e-06
5.86049e-08
-2.37354e-06
5.51741e-08
-2.38739e-06
5.16415e-08
-2.40011e-06
4.80093e-08
-2.41167e-06
4.42796e-08
-2.42205e-06
4.0455e-08
-2.43122e-06
3.6538e-08
-2.43915e-06
3.25317e-08
-2.44582e-06
2.84393e-08
-2.45122e-06
2.42641e-08
-2.45535e-06
2.00112e-08
-2.45819e-06
1.56879e-08
-2.45973e-06
1.13031e-08
-2.45999e-06
6.8692e-09
-2.45897e-06
2.40379e-09
-2.45665e-06
-2.07077e-09
-2.45298e-06
-6.54614e-09
-2.4479e-06
-1.10458e-08
-2.44137e-06
-1.55888e-08
-2.43338e-06
-2.01689e-08
-2.4239e-06
-2.47797e-08
-2.41292e-06
-2.94167e-08
-2.40043e-06
-3.40741e-08
-2.38642e-06
-3.87467e-08
-2.3709e-06
-4.34282e-08
-2.35385e-06
-4.81137e-08
-2.33529e-06
-5.2797e-08
-2.3152e-06
-5.74735e-08
-2.2936e-06
-6.21373e-08
-2.27049e-06
-6.67838e-08
-2.24588e-06
-7.1407e-08
-2.21977e-06
-7.60022e-08
-2.19218e-06
-8.05635e-08
-2.16312e-06
-8.50862e-08
-2.13261e-06
-8.95642e-08
-2.10065e-06
-9.39925e-08
-2.06728e-06
-9.83651e-08
-2.0325e-06
-1.02677e-07
-1.99634e-06
-1.06923e-07
-1.95883e-06
-1.111e-07
-1.91998e-06
-1.152e-07
-1.87983e-06
-1.19219e-07
-1.8384e-06
-1.23148e-07
-1.79573e-06
-1.26982e-07
-1.75184e-06
-1.30715e-07
-1.70676e-06
-1.34346e-07
-1.66054e-06
-1.3787e-07
-1.61321e-06
-1.41286e-07
-1.56481e-06
-1.44592e-07
-1.51536e-06
-1.47783e-07
-1.46492e-06
-1.5085e-07
-1.41353e-06
-1.53782e-07
-1.36122e-06
-1.56583e-07
-1.30804e-06
-1.59256e-07
-1.25405e-06
-1.61792e-07
-1.19927e-06
-1.64185e-07
-1.14377e-06
-1.66433e-07
-1.08759e-06
-1.68536e-07
-1.03078e-06
-1.70493e-07
-9.73392e-07
-1.72301e-07
-9.15468e-07
-1.73961e-07
-8.57063e-07
-1.7547e-07
-7.98224e-07
-1.76828e-07
-7.39001e-07
-1.78037e-07
-6.79444e-07
-1.79096e-07
-6.19602e-07
-1.80007e-07
-5.59522e-07
-1.80771e-07
-4.99253e-07
-1.8139e-07
-4.38841e-07
-1.81867e-07
-3.78334e-07
-1.82204e-07
-3.17775e-07
-1.82406e-07
-2.57209e-07
-1.82475e-07
-1.96676e-07
-1.82417e-07
-1.36218e-07
-1.82236e-07
-7.58718e-08
-1.81937e-07
-1.56713e-08
-1.81528e-07
4.43502e-08
-1.8101e-07
1.04157e-07
-1.80388e-07
1.63717e-07
-1.79672e-07
2.22997e-07
-1.7887e-07
2.81976e-07
-1.77984e-07
3.40648e-07
-1.77003e-07
3.98992e-07
-1.75915e-07
4.56988e-07
-1.7473e-07
5.14627e-07
-1.73491e-07
5.71888e-07
-1.7224e-07
6.28758e-07
-1.70982e-07
6.85221e-07
-1.69703e-07
7.41258e-07
-1.68377e-07
7.96836e-07
-1.66961e-07
8.51901e-07
-1.65381e-07
9.06362e-07
-1.63517e-07
9.60066e-07
-1.61158e-07
1.01276e-06
-1.5792e-07
1.06401e-06
-1.53101e-07
1.11317e-06
-1.45259e-07
1.15933e-06
-1.31732e-07
1.20208e-06
-1.06522e-07
-5.58232e-08
1.246e-06
-7.72612e-09
-1.11963e-08
-1.95964e-08
2.79759e-09
-3.27551e-08
1.50072e-08
-4.66999e-08
2.57173e-08
-6.13551e-08
3.54402e-08
-7.67746e-08
4.43349e-08
-9.30739e-08
5.24402e-08
-1.10378e-07
5.9772e-08
-1.2879e-07
6.63698e-08
-1.48366e-07
7.23086e-08
-1.69118e-07
7.76882e-08
-1.91022e-07
8.26173e-08
-2.14041e-07
8.71974e-08
-2.38128e-07
9.15143e-08
-2.63243e-07
9.56344e-08
-2.89349e-07
9.96068e-08
-3.16418e-07
1.03466e-07
-3.44427e-07
1.07235e-07
-3.73357e-07
1.1093e-07
-4.0319e-07
1.14561e-07
-4.33904e-07
1.18133e-07
-4.65481e-07
1.21648e-07
-4.9789e-07
1.25105e-07
-5.31102e-07
1.285e-07
-5.65068e-07
1.31826e-07
-5.99734e-07
1.35072e-07
-6.35016e-07
1.38226e-07
-6.7082e-07
1.41269e-07
-7.07012e-07
1.44175e-07
-7.43447e-07
1.46914e-07
-7.79951e-07
1.49453e-07
-8.16353e-07
1.51753e-07
-8.52484e-07
1.53772e-07
-8.88199e-07
1.55472e-07
-9.234e-07
1.56828e-07
-9.58037e-07
1.57831e-07
-9.92051e-07
1.58481e-07
-1.02543e-06
1.58759e-07
-1.05828e-06
1.58619e-07
-1.09081e-06
1.58065e-07
-1.12351e-06
1.57093e-07
-1.15661e-06
1.55903e-07
-1.18956e-06
1.54815e-07
-1.22207e-06
1.53874e-07
-1.25421e-06
1.52984e-07
-1.28608e-06
1.52089e-07
-1.31771e-06
1.51185e-07
-1.34912e-06
1.50266e-07
-1.38033e-06
1.49326e-07
-1.41135e-06
1.48361e-07
-1.44217e-06
1.47366e-07
-1.47281e-06
1.46338e-07
-1.50325e-06
1.45273e-07
-1.53349e-06
1.44165e-07
-1.56351e-06
1.4301e-07
-1.59331e-06
1.41801e-07
-1.62286e-06
1.40532e-07
-1.65215e-06
1.39196e-07
-1.68116e-06
1.37787e-07
-1.70986e-06
1.36298e-07
-1.73825e-06
1.34722e-07
-1.76628e-06
1.33053e-07
-1.79394e-06
1.31283e-07
-1.8212e-06
1.29408e-07
-1.84802e-06
1.2742e-07
-1.8744e-06
1.25316e-07
-1.90028e-06
1.2309e-07
-1.92564e-06
1.20737e-07
-1.95046e-06
1.18254e-07
-1.97469e-06
1.15637e-07
-1.99831e-06
1.12884e-07
-2.02127e-06
1.09991e-07
-2.04356e-06
1.06958e-07
-2.06513e-06
1.03782e-07
-2.08595e-06
1.00463e-07
-2.10599e-06
9.69995e-08
-2.12521e-06
9.33928e-08
-2.14358e-06
8.96428e-08
-2.16106e-06
8.57505e-08
-2.17762e-06
8.17172e-08
-2.19324e-06
7.75446e-08
-2.20787e-06
7.32346e-08
-2.22149e-06
6.87899e-08
-2.23406e-06
6.4213e-08
-2.24556e-06
5.95071e-08
-2.25596e-06
5.46759e-08
-2.26523e-06
4.9723e-08
-2.27334e-06
4.4653e-08
-2.28028e-06
3.94706e-08
-2.28602e-06
3.41809e-08
-2.29055e-06
2.879e-08
-2.29384e-06
2.3305e-08
-2.29589e-06
1.77348e-08
-2.29668e-06
1.20893e-08
-2.29619e-06
6.38013e-09
-2.29441e-06
6.19993e-10
-2.2913e-06
-5.18049e-09
-2.28683e-06
-1.10212e-08
-2.28096e-06
-1.6914e-08
-2.27369e-06
-2.28652e-08
-2.265e-06
-2.88688e-08
-2.25487e-06
-3.49167e-08
-2.24329e-06
-4.10015e-08
-2.23026e-06
-4.71146e-08
-2.21576e-06
-5.32489e-08
-2.1998e-06
-5.93958e-08
-2.18237e-06
-6.55486e-08
-2.16347e-06
-7.16994e-08
-2.14311e-06
-7.78418e-08
-2.12128e-06
-8.39679e-08
-2.098e-06
-9.00716e-08
-2.07326e-06
-9.61451e-08
-2.04709e-06
-1.02182e-07
-2.01948e-06
-1.08175e-07
-1.99045e-06
-1.14117e-07
-1.96001e-06
-1.2e-07
-1.92819e-06
-1.25819e-07
-1.89499e-06
-1.31564e-07
-1.86043e-06
-1.37231e-07