/*--------------------------------*- C++ -*----------------------------------*\
  =========                 |
  \\      /  F ield         | OpenFOAM: The Open Source CFD Toolbox
   \\    /   O peration     | Website:  https://openfoam.org
    \\  /    A nd           | Version:  13
     \\/     M anipulation  |
\*---------------------------------------------------------------------------*/
FoamFile
{
    format      ascii;
    class       volVectorField;
    location    "285";
    object      U;
}
// * * * * * * * * * * * * * * * * * * * * * * * * * * * * * * * * * * * * * //

dimensions      [0 1 -1 0 0 0 0];

internalField   nonuniform List<vector> 
12225
(
(9.84291 -0.896271 0)
(9.65308 -0.75856 0)
(9.44957 -0.446989 0)
(9.22361 -0.235689 0)
(9.00871 -0.115425 0)
(8.81806 -0.0512552 0)
(8.65175 -0.0181004 0)
(8.50947 -0.00095133 0)
(8.3876 0.00788095 0)
(8.28446 0.0122471 0)
(8.19578 0.0141654 0)
(8.11932 0.0152786 0)
(8.05247 0.0156222 0)
(7.99333 0.0158308 0)
(7.94046 0.0155953 0)
(7.89393 0.0164032 0)
(7.84204 0.0185234 0)
(7.8308 0.0138191 0)
(10.0671 0.239392 0)
(10.1301 0.343089 0)
(10.1205 0.274565 0)
(10.0818 0.19547 0)
(10.038 0.140329 0)
(9.99129 0.104531 0)
(9.93921 0.0812539 0)
(9.88136 0.0656626 0)
(9.82081 0.0548199 0)
(9.75903 0.0469198 0)
(9.69815 0.0409748 0)
(9.63884 0.0363109 0)
(9.58193 0.0325972 0)
(9.52794 0.029664 0)
(9.47637 0.0271674 0)
(9.42926 0.0257469 0)
(9.38155 0.0226072 0)
(9.34718 0.030794 0)
(10.0041 0.0532791 0)
(10.0324 0.04775 0)
(10.0586 0.0265669 0)
(10.0724 0.0277006 0)
(10.0782 0.0371759 0)
(10.0782 0.0442654 0)
(10.0723 0.0478706 0)
(10.0607 0.0493445 0)
(10.0453 0.0495887 0)
(10.0268 0.0491063 0)
(10.0063 0.0482075 0)
(9.9842 0.0471299 0)
(9.96118 0.045983 0)
(9.9377 0.0449105 0)
(9.91395 0.0437911 0)
(9.89077 0.0433037 0)
(9.86769 0.0421833 0)
(9.8461 0.0437795 0)
(9.99795 0.0115703 0)
(10.0121 0.0286274 0)
(10.0366 0.0392987 0)
(10.054 0.0497693 0)
(10.0656 0.0566042 0)
(10.0743 0.0589221 0)
(10.0801 0.0588077 0)
(10.0828 0.0578789 0)
(10.083 0.0567037 0)
(10.0813 0.0554162 0)
(10.0782 0.0540743 0)
(10.0738 0.0527849 0)
(10.0684 0.0515384 0)
(10.0624 0.0504251 0)
(10.0557 0.0493333 0)
(10.0488 0.048657 0)
(10.0419 0.0477317 0)
(10.035 0.0476609 0)
(9.99934 0.00723945 0)
(10.0092 0.0319557 0)
(10.028 0.0439543 0)
(10.0425 0.0497793 0)
(10.0535 0.0534338 0)
(10.0635 0.0550808 0)
(10.0722 0.0553873 0)
(10.0789 0.0551196 0)
(10.0839 0.054589 0)
(10.0877 0.053888 0)
(10.0905 0.0530736 0)
(10.0924 0.052238 0)
(10.0936 0.0513977 0)
(10.0942 0.0506183 0)
(10.0944 0.0498504 0)
(10.0944 0.049284 0)
(10.0943 0.0485979 0)
(10.0942 0.0480917 0)
(10.0003 0.00909454 0)
(10.0083 0.0311578 0)
(10.0229 0.0408518 0)
(10.0352 0.0452973 0)
(10.0454 0.0489837 0)
(10.0552 0.05135 0)
(10.0642 0.0523408 0)
(10.0718 0.0525735 0)
(10.0783 0.0524317 0)
(10.0839 0.0520535 0)
(10.0887 0.0515158 0)
(10.0929 0.050904 0)
(10.0966 0.0502529 0)
(10.0998 0.0496096 0)
(10.1027 0.0489565 0)
(10.1055 0.0483708 0)
(10.1081 0.0476946 0)
(10.1107 0.0469345 0)
(10.0004 0.00886134 0)
(10.0071 0.0270753 0)
(10.0191 0.0363876 0)
(10.0302 0.0413546 0)
(10.0397 0.0453827 0)
(10.0488 0.0480538 0)
(10.0575 0.0493215 0)
(10.0652 0.0497858 0)
(10.072 0.0498485 0)
(10.0781 0.0496539 0)
(10.0837 0.0492795 0)
(10.0888 0.0488006 0)
(10.0934 0.0482596 0)
(10.0977 0.0476893 0)
(10.1018 0.0470854 0)
(10.1057 0.0464693 0)
(10.1095 0.0457523 0)
(10.1132 0.0448645 0)
(10.0004 0.00786483 0)
(10.0059 0.0233746 0)
(10.0161 0.0327223 0)
(10.0263 0.0380622 0)
(10.0352 0.0420465 0)
(10.0437 0.0447306 0)
(10.0518 0.0461406 0)
(10.0593 0.0467691 0)
(10.0661 0.0469801 0)
(10.0723 0.0469168 0)
(10.0781 0.0466572 0)
(10.0835 0.0462696 0)
(10.0885 0.0457986 0)
(10.0933 0.0452693 0)
(10.0978 0.0446818 0)
(10.1022 0.0440328 0)
(10.1064 0.0432654 0)
(10.1106 0.0423096 0)
(10.0004 0.00692911 0)
(10.005 0.0204095 0)
(10.0137 0.0294295 0)
(10.0229 0.0348135 0)
(10.0312 0.0386527 0)
(10.0391 0.0413128 0)
(10.0469 0.0428412 0)
(10.0541 0.0436066 0)
(10.0607 0.0439319 0)
(10.0669 0.0439657 0)
(10.0727 0.0437881 0)
(10.0781 0.0434631 0)
(10.0833 0.0430346 0)
(10.0882 0.0425243 0)
(10.0929 0.0419339 0)
(10.0974 0.0412526 0)
(10.1018 0.0404406 0)
(10.1062 0.0394497 0)
(10.0004 0.00610847 0)
(10.0043 0.0178362 0)
(10.0116 0.0262462 0)
(10.0199 0.0315338 0)
(10.0276 0.035246 0)
(10.0351 0.0378659 0)
(10.0424 0.0394696 0)
(10.0493 0.040334 0)
(10.0558 0.0407427 0)
(10.0618 0.0408472 0)
(10.0675 0.0407283 0)
(10.0729 0.0404464 0)
(10.0781 0.0400432 0)
(10.083 0.0395397 0)
(10.0877 0.0389391 0)
(10.0923 0.0382312 0)
(10.0967 0.037388 0)
(10.101 0.0363854 0)
(10.0003 0.00535444 0)
(10.0036 0.0155255 0)
(10.0099 0.0232065 0)
(10.0173 0.0282993 0)
(10.0245 0.0318682 0)
(10.0315 0.0344076 0)
(10.0384 0.0360328 0)
(10.045 0.0369581 0)
(10.0512 0.0374245 0)
(10.0571 0.037579 0)
(10.0627 0.0375022 0)
(10.068 0.0372501 0)
(10.0731 0.0368628 0)
(10.0779 0.0363612 0)
(10.0826 0.0357508 0)
(10.0871 0.0350255 0)
(10.0914 0.0341674 0)
(10.0956 0.0331713 0)
(10.0003 0.00469269 0)
(10.0032 0.0135856 0)
(10.0086 0.0205591 0)
(10.0152 0.0253876 0)
(10.0219 0.0287898 0)
(10.0285 0.0312211 0)
(10.0351 0.0328248 0)
(10.0414 0.0337742 0)
(10.0474 0.034272 0)
(10.0531 0.034456 0)
(10.0585 0.0344046 0)
(10.0638 0.0341711 0)
(10.0687 0.0337933 0)
(10.0735 0.0332926 0)
(10.0781 0.0326773 0)
(10.0825 0.0319458 0)
(10.0867 0.0310878 0)
(10.0907 0.0301123 0)
(10.0003 0.00407981 0)
(10.0028 0.0118176 0)
(10.0075 0.0180592 0)
(10.0134 0.0225467 0)
(10.0197 0.0257481 0)
(10.0259 0.0280466 0)
(10.0321 0.0295965 0)
(10.0381 0.0305433 0)
(10.0439 0.0310546 0)
(10.0494 0.031255 0)
(10.0547 0.0312198 0)
(10.0598 0.0309993 0)
(10.0647 0.0306293 0)
(10.0693 0.0301319 0)
(10.0738 0.0295174 0)
(10.0781 0.0287893 0)
(10.0822 0.027943 0)
(10.0861 0.0269982 0)
(10.0002 0.00344608 0)
(10.0024 0.0099804 0)
(10.0064 0.0153782 0)
(10.0117 0.0193992 0)
(10.0174 0.0223162 0)
(10.0232 0.0244222 0)
(10.029 0.0258678 0)
(10.0347 0.0267745 0)
(10.0403 0.0272748 0)
(10.0456 0.0274755 0)
(10.0508 0.0274462 0)
(10.0557 0.0272335 0)
(10.0604 0.0268706 0)
(10.0649 0.0263796 0)
(10.0693 0.0257734 0)
(10.0734 0.0250597 0)
(10.0774 0.0242395 0)
(10.0812 0.0233393 0)
(10.0002 0.00278758 0)
(10.002 0.00807211 0)
(10.0055 0.0125262 0)
(10.0101 0.0159506 0)
(10.0153 0.018481 0)
(10.0206 0.0203195 0)
(10.026 0.021597 0)
(10.0314 0.0224124 0)
(10.0367 0.0228657 0)
(10.0418 0.0230425 0)
(10.0467 0.0230035 0)
(10.0515 0.0227902 0)
(10.0561 0.0224327 0)
(10.0604 0.0219524 0)
(10.0646 0.0213639 0)
(10.0686 0.0206779 0)
(10.0724 0.0198997 0)
(10.076 0.0190594 0)
(10.0002 0.00210378 0)
(10.0017 0.00609466 0)
(10.0047 0.00951174 0)
(10.0087 0.012206 0)
(10.0134 0.0142306 0)
(10.0183 0.0157095 0)
(10.0233 0.0167407 0)
(10.0283 0.0173993 0)
(10.0333 0.0177564 0)
(10.0382 0.0178753 0)
(10.0429 0.0178042 0)
(10.0474 0.0175778 0)
(10.0518 0.0172218 0)
(10.056 0.0167555 0)
(10.06 0.0161936 0)
(10.0639 0.0155486 0)
(10.0675 0.0148276 0)
(10.071 0.0140613 0)
(10.0002 0.00139187 0)
(10.0015 0.00403404 0)
(10.0041 0.00631869 0)
(10.0076 0.0081486 0)
(10.0118 0.00953726 0)
(10.0163 0.0105486 0)
(10.0209 0.011243 0)
(10.0256 0.0116688 0)
(10.0303 0.0118706 0)
(10.0349 0.0118893 0)
(10.0394 0.011758 0)
(10.0438 0.0115019 0)
(10.048 0.0111404 0)
(10.052 0.0106893 0)
(10.0559 0.0101613 0)
(10.0595 0.00956782 0)
(10.063 0.00891608 0)
(10.0663 0.0082345 0)
(10.0001 0.000635574 0)
(10.0013 0.00183857 0)
(10.0036 0.00287501 0)
(10.0068 0.00369886 0)
(10.0107 0.0043108 0)
(10.0148 0.00473294 0)
(10.0192 0.0049879 0)
(10.0236 0.00509541 0)
(10.0281 0.00507474 0)
(10.0325 0.00494421 0)
(10.0368 0.00471951 0)
(10.0409 0.00441353 0)
(10.045 0.00403712 0)
(10.0488 0.00359981 0)
(10.0525 0.00311012 0)
(10.056 0.0025764 0)
(10.0594 0.0020038 0)
(10.0625 0.00141608 0)
(10.0001 -0.0002081 0)
(10.0012 -0.000613561 0)
(10.0034 -0.000992412 0)
(10.0065 -0.00133532 0)
(10.0102 -0.00164141 0)
(10.0143 -0.00192511 0)
(10.0185 -0.00220448 0)
(10.0228 -0.00249162 0)
(10.0271 -0.00279368 0)
(10.0313 -0.0031161 0)
(10.0355 -0.00346295 0)
(10.0395 -0.00383637 0)
(10.0434 -0.00423665 0)
(10.0471 -0.00466277 0)
(10.0507 -0.00511281 0)
(10.0541 -0.00558368 0)
(10.0573 -0.0060739 0)
(10.0604 -0.00656658 0)
(10.0001 -0.0010151 0)
(10.0013 -0.00296639 0)
(10.0037 -0.00470996 0)
(10.007 -0.00616479 0)
(10.0108 -0.00732744 0)
(10.015 -0.00825861 0)
(10.0193 -0.00902019 0)
(10.0237 -0.00965402 0)
(10.028 -0.010194 0)
(10.0323 -0.0106714 0)
(10.0364 -0.0111106 0)
(10.0404 -0.011528 0)
(10.0442 -0.0119344 0)
(10.0479 -0.012337 0)
(10.0514 -0.0127405 0)
(10.0548 -0.0131469 0)
(10.0579 -0.0135583 0)
(10.0609 -0.013964 0)
(10.0002 -0.00171099 0)
(10.0015 -0.00502146 0)
(10.0041 -0.00795954 0)
(10.0078 -0.0103205 0)
(10.012 -0.0121262 0)
(10.0164 -0.0135283 0)
(10.021 -0.0146331 0)
(10.0255 -0.0154974 0)
(10.03 -0.0161777 0)
(10.0343 -0.0167323 0)
(10.0385 -0.0172056 0)
(10.0426 -0.0176257 0)
(10.0464 -0.0180114 0)
(10.0501 -0.0183761 0)
(10.0536 -0.018729 0)
(10.0569 -0.0190754 0)
(10.06 -0.0194193 0)
(10.063 -0.0197538 0)
(10.0002 -0.00237158 0)
(10.0016 -0.00705359 0)
(10.0047 -0.0112089 0)
(10.009 -0.0143839 0)
(10.0137 -0.0166845 0)
(10.0185 -0.0184255 0)
(10.0234 -0.0197655 0)
(10.0281 -0.0207731 0)
(10.0328 -0.021529 0)
(10.0373 -0.0221145 0)
(10.0416 -0.0225864 0)
(10.0457 -0.022981 0)
(10.0495 -0.0233245 0)
(10.0532 -0.0236365 0)
(10.0567 -0.0239296 0)
(10.06 -0.0242116 0)
(10.0632 -0.0244877 0)
(10.0662 -0.0247537 0)
(10.0001 -0.00298713 0)
(10.0018 -0.00911428 0)
(10.0054 -0.0144899 0)
(10.0105 -0.0183788 0)
(10.0159 -0.0211168 0)
(10.0211 -0.0231399 0)
(10.0263 -0.024603 0)
(10.0314 -0.0256271 0)
(10.0362 -0.026364 0)
(10.0409 -0.0269227 0)
(10.0453 -0.027359 0)
(10.0494 -0.0277083 0)
(10.0534 -0.0279999 0)
(10.0571 -0.0282562 0)
(10.0606 -0.0284914 0)
(10.0639 -0.0287139 0)
(10.067 -0.0289292 0)
(10.07 -0.029135 0)
(10.0001 -0.00352154 0)
(10.0018 -0.0115624 0)
(10.0062 -0.0179303 0)
(10.0123 -0.0220364 0)
(10.0183 -0.0251008 0)
(10.0241 -0.0275052 0)
(10.0297 -0.0291382 0)
(10.0351 -0.030146 0)
(10.0401 -0.0308001 0)
(10.0449 -0.0312641 0)
(10.0494 -0.0316038 0)
(10.0536 -0.0318587 0)
(10.0576 -0.0320622 0)
(10.0614 -0.0322377 0)
(10.0649 -0.0323987 0)
(10.0682 -0.0325524 0)
(10.0713 -0.0327021 0)
(10.0743 -0.0328444 0)
(9.99989 -0.00336482 0)
(10.0016 -0.0149782 0)
(10.0073 -0.0227109 0)
(10.0143 -0.0262225 0)
(10.0207 -0.0288559 0)
(10.027 -0.0312741 0)
(10.0332 -0.0330271 0)
(10.0392 -0.0341284 0)
(10.0446 -0.0348319 0)
(10.0496 -0.0352949 0)
(10.0542 -0.0355893 0)
(10.0585 -0.0357707 0)
(10.0625 -0.0358858 0)
(10.0662 -0.0359661 0)
(10.0696 -0.0360298 0)
(10.0727 -0.036087 0)
(10.0756 -0.0361422 0)
(10.0783 -0.036194 0)
(9.99858 -0.000433285 0)
(9.99909 -0.0159685 0)
(10.0077 -0.0274287 0)
(10.0169 -0.0322319 0)
(10.0241 -0.0344973 0)
(10.031 -0.0358614 0)
(10.038 -0.0366672 0)
(10.0445 -0.0371958 0)
(10.0503 -0.0376013 0)
(10.0553 -0.0378969 0)
(10.0599 -0.0380816 0)
(10.0639 -0.0381816 0)
(10.0674 -0.0382279 0)
(10.0706 -0.0382434 0)
(10.0733 -0.0382438 0)
(10.0757 -0.0382388 0)
(10.0778 -0.0382323 0)
(10.0796 -0.0382228 0)
(9.99496 0.00123406 0)
(9.99336 -0.0095311 0)
(10.0071 -0.0224612 0)
(10.0214 -0.0344013 0)
(10.0318 -0.0422818 0)
(10.0402 -0.0455688 0)
(10.0475 -0.0461457 0)
(10.0535 -0.0457366 0)
(10.0582 -0.0450661 0)
(10.062 -0.0443142 0)
(10.0648 -0.0435506 0)
(10.0669 -0.0428231 0)
(10.0683 -0.042159 0)
(10.0691 -0.0415621 0)
(10.0693 -0.0410369 0)
(10.0692 -0.0405788 0)
(10.0687 -0.0401814 0)
(10.0679 -0.0398184 0)
(9.99475 -0.0281794 0)
(10.0002 -0.0171758 0)
(10.0165 0.00347069 0)
(10.0326 0.00319797 0)
(10.0454 -0.00775896 0)
(10.0547 -0.0180149 0)
(10.0603 -0.0251349 0)
(10.0623 -0.0299405 0)
(10.0616 -0.0331485 0)
(10.0589 -0.0351656 0)
(10.0547 -0.0363327 0)
(10.0493 -0.0369404 0)
(10.0429 -0.037193 0)
(10.0359 -0.0372247 0)
(10.0283 -0.037133 0)
(10.0203 -0.0369821 0)
(10.0121 -0.0368402 0)
(10.0039 -0.0366843 0)
(10.0389 -0.190629 0)
(10.0867 -0.300328 0)
(10.0901 -0.258428 0)
(10.0758 -0.194658 0)
(10.0621 -0.146116 0)
(10.0489 -0.112216 0)
(10.0318 -0.0885321 0)
(10.0103 -0.0721335 0)
(9.98561 -0.0607226 0)
(9.95907 -0.0525169 0)
(9.93154 -0.0464069 0)
(9.90358 -0.0417201 0)
(9.87571 -0.0380407 0)
(9.84824 -0.0350876 0)
(9.82145 -0.0326749 0)
(9.79545 -0.0307256 0)
(9.77049 -0.0291927 0)
(9.74659 -0.028367 0)
(9.92255 0.695285 0)
(9.85464 0.622021 0)
(9.75666 0.394285 0)
(9.62342 0.228947 0)
(9.48556 0.127661 0)
(9.35834 0.068812 0)
(9.24448 0.0350997 0)
(9.14311 0.0156804 0)
(9.05341 0.00435446 0)
(8.9743 -0.00232823 0)
(8.90423 -0.00626459 0)
(8.84188 -0.00861051 0)
(8.78603 -0.0099856 0)
(8.73578 -0.0108012 0)
(8.69024 -0.0113195 0)
(8.64879 -0.0115942 0)
(8.61051 -0.0118014 0)
(8.5751 -0.0124397 0)
(0.00442479 -0.0102946 -8.37799e-19)
(0.0151499 -0.01659 7.40767e-19)
(0.0243254 -0.0146841 0)
(0.0301521 -0.0088262 0)
(0.0314205 -0.00179125 0)
(0.0280314 0.00462091 -3.87424e-19)
(0.0210258 0.0095017 0)
(0.0112531 0.012777 0)
(-0.000587288 0.0147911 0)
(-0.013975 0.0160069 0)
(-0.0286072 0.0168241 2.22283e-19)
(-0.0443157 0.0174901 0)
(-0.0610015 0.0181208 0)
(-0.0786099 0.0187575 0)
(-0.0971068 0.0194061 0)
(-0.116465 0.0200614 1.20225e-19)
(-0.13666 0.0207146 0)
(-0.157668 0.0213573 0)
(-0.179461 0.0219794 0)
(-0.202015 0.0225684 0)
(-0.225296 0.0231073 0)
(-0.249273 0.0235751 0)
(-0.273906 0.0239483 0)
(-0.299151 0.0242033 6.96352e-20)
(-0.324954 0.0243235 -6.65571e-20)
(-0.351261 0.0243046 6.38565e-20)
(-0.378011 0.0241709 6.1481e-20)
(-0.405158 0.0239859 0)
(-0.432699 0.0238789 0)
(-0.460711 0.0240744 -5.59248e-20)
(-0.4893 0.0249442 -5.45243e-20)
(-0.518502 0.0267202 0)
(-0.548291 0.0295511 0)
(-0.578674 0.0342136 -5.11851e-20)
(-0.609935 0.0404053 0)
(-0.642407 0.0469202 0)
(-0.676071 0.0567699 4.88828e-20)
(-0.711051 0.0665886 0)
(-0.749067 0.0726486 4.8533e-20)
(-0.788192 0.0897095 1.04955e-19)
(-0.830144 0.0675127 0)
(-0.871605 0.0205422 0)
(-0.902205 0.0241049 0)
(-0.937528 0.031549 0)
(-0.97654 0.0350118 0)
(-1.017 0.0346322 1.14819e-19)
(-1.05701 0.0348339 1.11478e-19)
(-1.09752 0.0349006 1.08341e-19)
(-1.13816 0.0348395 0)
(-1.17883 0.0346671 -1.02625e-19)
(-1.21948 0.0344278 0)
(-1.26004 0.0341427 9.7579e-20)
(-1.30048 0.0338291 9.52754e-20)
(-1.34078 0.0334951 0)
(-1.38091 0.0331467 0)
(-1.42085 0.0327868 0)
(-1.46059 0.032417 8.72607e-20)
(-1.50011 0.0320376 0)
(-1.53939 0.0316485 0)
(-1.57842 0.0312487 0)
(-1.61717 0.0308374 0)
(-1.65562 0.0304131 0)
(-1.69376 0.0299747 0)
(-1.73155 0.0295206 0)
(-1.76897 0.02905 0)
(-1.80599 0.0285611 -7.40336e-20)
(-1.84257 0.0280534 0)
(-1.8787 0.0275255 0)
(-1.91433 0.0269772 7.05687e-20)
(-1.94942 0.0264072 6.9485e-20)
(-1.98395 0.0258156 0)
(-2.01788 0.0252015 -6.74067e-20)
(-2.05116 0.0245652 6.64068e-20)
(-2.08376 0.0239059 0)
(-2.11563 0.0232244 -6.44728e-20)
(-2.14675 0.0225201 0)
(-2.17706 0.0217942 0)
(-2.20653 0.0210463 6.17023e-20)
(-2.23512 0.0202775 0)
(-2.26278 0.0194875 -5.99181e-20)
(-2.28948 0.0186777 0)
(-2.31518 0.0178477 5.8166e-20)
(-2.33982 0.0169987 5.72976e-20)
(-2.36338 0.01613 5.64319e-20)
(-2.38582 0.0152425 1.11135e-19)
(-2.40709 0.0143352 -1.09404e-19)
(-2.42716 0.0134078 0)
(-2.44599 0.0124573 0)
(-2.46352 0.0114811 0)
(-2.47973 0.0104734 -1.02413e-19)
(-2.49456 0.0094268 -1.00634e-19)
(-2.50798 0.00833236 9.88385e-20)
(-2.51991 0.00717983 0)
(-2.5303 0.00595882 -9.51881e-20)
(-2.53907 0.00466556 -9.33308e-20)
(-2.54616 0.00331887 -9.14522e-20)
(-2.55148 0.00197952 0)
(-2.5549 0.000747743 0)
(-2.55633 -0.000287718 0)
(-2.55634 -0.00119573 -8.35925e-20)
(-2.55482 -0.00207824 0)
(-2.55182 -0.00294628 0)
(-2.54734 -0.00380909 7.71844e-20)
(-2.54136 -0.00466767 0)
(-2.53388 -0.00552165 0)
(-2.52489 -0.00637102 7.02806e-20)
(-2.51438 -0.00721436 0)
(-2.50234 -0.00805192 0)
(-2.48877 -0.00888223 -6.2813e-20)
(-2.47367 -0.00970574 -6.01865e-20)
(-2.45705 -0.0105208 0)
(-2.43889 -0.011328 5.47112e-20)
(-2.41921 -0.0121256 0)
(-2.39801 -0.0129142 -4.89206e-20)
(-2.3753 -0.0136921 0)
(-2.35108 -0.0144599 -4.27906e-20)
(-2.32536 -0.015216 -3.95902e-20)
(-2.29816 -0.0159609 0)
(-2.26949 -0.016693 0)
(-2.23936 -0.0174132 0)
(-2.2078 -0.0181203 0)
(-2.17482 -0.0188147 0)
(-2.14044 -0.0194945 0)
(-2.10469 -0.0201601 0)
(-2.06759 -0.0208098 -1.02452e-20)
(-2.02915 -0.0214452 6.04351e-21)
(-1.98942 -0.0220652 0)
(-1.94841 -0.022672 0)
(-1.90616 -0.0232632 0)
(-1.8627 -0.023839 0)
(-1.81805 -0.0243986 -3.4261e-20)
(-1.77226 -0.0249424 0)
(-1.72537 -0.0254704 5.5093e-20)
(-1.6774 -0.025986 -6.60666e-20)
(-1.6284 -0.0264855 0)
(-1.5784 -0.0269686 0)
(-1.52745 -0.0274365 0)
(-1.4756 -0.0278893 1.14165e-19)
(-1.42288 -0.0283275 1.27366e-19)
(-1.36933 -0.0287514 0)
(-1.31502 -0.029161 1.55377e-19)
(-1.25997 -0.0295564 1.70256e-19)
(-1.20423 -0.0299381 -1.85768e-19)
(-1.14786 -0.0303064 0)
(-1.09089 -0.0306622 0)
(-1.03337 -0.0310056 -2.36554e-19)
(-0.975355 -0.0313375 0)
(-0.916878 -0.0316583 0)
(-0.857988 -0.031969 0)
(-0.798731 -0.0322701 0)
(-0.739149 -0.0325629 3.38785e-19)
(-0.679286 -0.0328478 3.62532e-19)
(-0.619184 -0.0331267 0)
(-0.558883 -0.0333999 4.14108e-19)
(-0.498423 -0.0336695 0)
(-0.437842 -0.0339359 0)
(-0.377177 -0.0342004 5.03696e-19)
(-0.316465 -0.0344631 0)
(-0.255741 -0.0347275 5.73589e-19)
(-0.19504 -0.0350041 0)
(-0.134393 -0.0353074 0)
(-0.0738338 -0.0355996 6.98629e-19)
(-0.0133961 -0.0356345 0)
(0.046838 -0.0350184 7.39395e-19)
(0.1069 -0.0339971 0)
(0.166734 -0.0329828 0)
(0.226317 -0.0320315 0)
(0.285646 -0.0311364 -6.71422e-19)
(0.34473 -0.0302882 0)
(0.403566 -0.0294758 6.44356e-19)
(0.462139 -0.0286883 0)
(0.520408 -0.0279109 0)
(0.578302 -0.027123 0)
(0.635679 -0.0262913 0)
(0.692331 -0.0253519 0)
(0.747626 -0.0241943 0)
(0.801255 -0.0224921 0)
(0.848329 -0.0196745 -1.13792e-18)
(0.894659 -0.0136072 0)
(0.887551 0.00474617 0)
(0.0049464 -0.0309725 1.95036e-18)
(0.0101133 -0.030407 -1.09919e-18)
(0.00991341 -0.0180677 0)
(0.00667498 -0.00477772 3.45e-19)
(0.000927909 0.00766469 0)
(-0.00696395 0.0184784 1.33467e-19)
(-0.0169374 0.0273141 -2.43819e-19)
(-0.0288976 0.034211 -2.24696e-19)
(-0.0427094 0.0394755 0)
(-0.058169 0.0435279 -1.91494e-19)
(-0.0750623 0.0467681 -8.84975e-20)
(-0.0932159 0.0494984 0)
(-0.112501 0.0519123 0)
(-0.132823 0.0541194 0)
(-0.15412 0.0561758 0)
(-0.176349 0.0581086 -6.21175e-20)
(-0.199484 0.0599299 0)
(-0.223504 0.0616459 1.10644e-19)
(-0.248398 0.0632594 0)
(-0.274159 0.0647703 0)
(-0.300782 0.0661766 -9.56492e-20)
(-0.328271 0.0674747 0)
(-0.356634 0.0686614 8.82274e-20)
(-0.385888 0.0697336 -4.25918e-20)
(-0.416056 0.0706935 4.12041e-20)
(-0.44717 0.0715489 -3.99695e-20)
(-0.479263 0.0723235 -3.88721e-20)
(-0.512375 0.0730547 0)
(-0.546548 0.0738023 0)
(-0.581819 0.0746228 3.63219e-20)
(-0.618189 0.0755536 -3.56954e-20)
(-0.655681 0.076598 0)
(-0.694364 0.0777053 0)
(-0.734248 0.078787 3.47914e-20)
(-0.775218 0.0796872 0)
(-0.817052 0.0802749 0)
(-0.859167 0.0807441 -3.46404e-20)
(-0.901621 0.0811485 0)
(-0.94342 0.0816109 3.39276e-20)
(-0.982914 0.0826494 -6.98192e-20)
(-1.0227 0.0841391 0)
(-1.0639 0.0852444 0)
(-1.10753 0.0872079 -1.32593e-19)
(-1.14866 0.0885374 -1.29345e-19)
(-1.18777 0.089109 -1.26324e-19)
(-1.22583 0.088952 6.16133e-20)
(-1.26351 0.0884413 -6.0587e-20)
(-1.30077 0.0877492 -1.77683e-19)
(-1.33766 0.086914 1.15967e-19)
(-1.37421 0.0859774 5.69951e-20)
(-1.41046 0.0849692 0)
(-1.4464 0.0839119 -5.48858e-20)
(-1.48205 0.0828202 5.36153e-20)
(-1.51741 0.0817034 0)
(-1.55247 0.0805665 0)
(-1.58721 0.0794119 0)
(-1.62165 0.0782402 -5.03749e-20)
(-1.65575 0.0770505 0)
(-1.68951 0.075841 9.73384e-20)
(-1.72291 0.0746095 0)
(-1.75593 0.0733538 9.44223e-20)
(-1.78856 0.072071 0)
(-1.82077 0.0707588 -9.16854e-20)
(-1.85254 0.0694146 0)
(-1.88384 0.0680365 8.90993e-20)
(-1.91466 0.0666221 -4.38002e-20)
(-1.94496 0.0651701 0)
(-1.97471 0.0636787 -8.5448e-20)
(-2.00389 0.0621474 -4.22596e-20)
(-2.03246 0.0605749 -4.16832e-20)
(-2.06041 0.0589611 0)
(-2.08768 0.0573054 -4.0336e-20)
(-2.11427 0.0556084 -4.0003e-20)
(-2.14012 0.0538697 0)
(-2.16522 0.0520905 3.89126e-20)
(-2.18953 0.0502709 -7.65561e-20)
(-2.21301 0.0484128 0)
(-2.23563 0.0465167 -3.73017e-20)
(-2.25737 0.0445847 0)
(-2.27819 0.0426173 1.08544e-19)
(-2.29805 0.0406169 0)
(-2.31693 0.0385846 -1.05347e-19)
(-2.33479 0.0365226 -3.4622e-20)
(-2.35161 0.0344316 3.39627e-20)
(-2.36735 0.0323144 6.68532e-20)
(-2.38198 0.0301716 -6.57719e-20)
(-2.39547 0.0280057 0)
(-2.40779 0.025817 0)
(-2.41892 0.0236072 0)
(-2.42883 0.021376 1.84181e-19)
(-2.43749 0.0191229 6.02549e-20)
(-2.4449 0.0168473 -5.90668e-20)
(-2.45105 0.0145489 0)
(-2.45592 0.0122252 -5.66403e-20)
(-2.45953 0.00986985 5.53918e-20)
(-2.46191 0.00748105 5.41295e-20)
(-2.46313 0.00508069 0)
(-2.46329 0.00273205 0)
(-2.4625 0.000511192 0)
(-2.46032 -0.00160438 4.87994e-20)
(-2.45675 -0.00367803 0)
(-2.45174 -0.00572313 -9.21379e-20)
(-2.44527 -0.00774716 -1.33779e-19)
(-2.43733 -0.00975093 8.63301e-20)
(-2.4279 -0.011733 0)
(-2.41699 -0.0136918 4.03067e-20)
(-2.40457 -0.0156248 0)
(-2.39065 -0.0175308 7.40605e-20)
(-2.37522 -0.0194073 -3.56199e-20)
(-2.35829 -0.0212535 -3.39993e-20)
(-2.33984 -0.0230668 0)
(-2.31988 -0.0248465 -9.10624e-20)
(-2.29842 -0.02659 5.74158e-20)
(-2.27545 -0.0282968 2.66898e-20)
(-2.25099 -0.0299643 0)
(-2.22505 -0.031592 2.30588e-20)
(-2.19763 -0.0331775 6.41929e-20)
(-2.16874 -0.0347201 0)
(-2.1384 -0.0362175 3.54076e-20)
(-2.10662 -0.0376698 3.15172e-20)
(-2.07343 -0.0390755 2.75626e-20)
(-2.03883 -0.0404343 0)
(-2.00286 -0.0417433 0)
(-1.96552 -0.0430017 0)
(-1.92685 -0.0442068 -5.94823e-21)
(-1.88687 -0.0453595 -2.99832e-21)
(-1.8456 -0.0464585 0)
(-1.80307 -0.0475056 1.93583e-21)
(-1.75932 -0.0484997 6.41074e-21)
(-1.71437 -0.0494427 0)
(-1.66826 -0.0503337 1.64823e-20)
(-1.62101 -0.0511689 4.04577e-20)
(-1.57268 -0.0519425 -2.59312e-20)
(-1.52328 -0.052662 -2.87918e-20)
(-1.47286 -0.0533309 0)
(-1.42147 -0.053946 0)
(-1.36913 -0.0545042 0)
(-1.3159 -0.0550078 -5.06858e-20)
(-1.26182 -0.0554576 5.37122e-20)
(-1.20692 -0.0558546 1.19937e-19)
(-1.15127 -0.0561994 -6.63164e-20)
(-1.09489 -0.0564926 6.94581e-20)
(-1.03785 -0.0567351 7.70589e-20)
(-0.980169 -0.0569282 0)
(-0.921909 -0.0570731 0)
(-0.863113 -0.0571711 -9.13748e-20)
(-0.803825 -0.0572237 0)
(-0.744092 -0.0572327 0)
(-0.683959 -0.0571996 2.19329e-19)
(-0.62347 -0.0571263 0)
(-0.562669 -0.0570149 1.20245e-19)
(-0.501599 -0.0568675 -1.28571e-19)
(-0.440303 -0.0566861 0)
(-0.378822 -0.0564733 1.38341e-19)
(-0.317194 -0.0562308 0)
(-0.255458 -0.0559612 0)
(-0.19365 -0.0556659 -1.59383e-19)
(-0.131805 -0.0553459 3.29075e-19)
(-0.0699577 -0.0550029 -1.72131e-19)
(-0.00813601 -0.0546393 0)
(0.05364 -0.0542558 0)
(0.115346 -0.0538501 1.80341e-19)
(0.176969 -0.0533656 0)
(0.238438 -0.0526821 1.84001e-19)
(0.299688 -0.0518473 0)
(0.360722 -0.0509989 0)
(0.421559 -0.0501756 0)
(0.482194 -0.0493786 1.93129e-19)
(0.542622 -0.0486005 0)
(0.602834 -0.0478309 -1.96049e-19)
(0.662808 -0.0470555 0)
(0.722502 -0.0462533 0)
(0.781843 -0.0453896 3.97738e-19)
(0.840697 -0.0444054 -3.99942e-19)
(0.898855 -0.0431877 0)
(0.955807 -0.0415249 0)
(1.01116 -0.0388954 0)
(1.06197 -0.0343271 1.23092e-18)
(1.11142 -0.0246745 0)
(1.13795 -0.00124176 -8.54465e-19)
(0.000367951 -0.0389255 -8.0144e-22)
(-0.00264863 -0.0252613 1.06278e-18)
(-0.00890131 -0.0066855 0)
(-0.0171633 0.0105406 -4.31822e-19)
(-0.0269576 0.0260302 0)
(-0.0379627 0.0396802 0)
(-0.0501665 0.0514192 3.8651e-23)
(-0.0636545 0.0612788 1.33743e-19)
(-0.078492 0.0694415 1.25683e-19)
(-0.0946829 0.0761996 1.18669e-19)
(-0.112177 0.0818777 0)
(-0.130896 0.0867699 0)
(-0.150757 0.0911073 -1.00843e-19)
(-0.171684 0.0950535 -1.91666e-19)
(-0.193619 0.0987157 1.82502e-19)
(-0.216522 0.102161 0)
(-0.240364 0.10543 1.66551e-19)
(-0.265126 0.10855 -7.98449e-20)
(-0.290799 0.111539 0)
(-0.317377 0.11441 1.47654e-19)
(-0.344859 0.117175 7.12506e-20)
(-0.373251 0.119844 -1.37776e-19)
(-0.40256 0.122426 -6.6763e-20)
(-0.432796 0.124933 0)
(-0.46397 0.12738 1.26169e-19)
(-0.496092 0.129789 1.23018e-19)
(-0.529165 0.132187 0)
(-0.563185 0.134605 1.17638e-19)
(-0.598135 0.13707 0)
(-0.633956 0.139601 1.13253e-19)
(-0.670506 0.142179 5.56356e-20)
(-0.707597 0.144723 0)
(-0.745057 0.147149 0)
(-0.782725 0.149375 0)
(-0.82043 0.151312 0)
(-0.857951 0.152862 0)
(-0.894991 0.154118 0)
(-0.931382 0.154987 9.9722e-20)
(-0.966915 0.155136 -1.47226e-19)
(-1.0014 0.154614 0)
(-1.03552 0.151846 0)
(-1.07038 0.147776 0)
(-1.10587 0.145429 1.61823e-22)
(-1.14071 0.144024 8.86213e-20)
(-1.17466 0.142571 1.73341e-19)
(-1.208 0.140926 -1.69794e-19)
(-1.24101 0.139246 -8.31379e-20)
(-1.27373 0.13753 8.16706e-20)
(-1.3062 0.135776 -1.45268e-22)
(-1.33843 0.133987 7.85204e-20)
(-1.37046 0.132167 0)
(-1.40227 0.130324 7.57667e-20)
(-1.43389 0.12846 -1.52858e-22)
(-1.46531 0.126578 0)
(-1.49651 0.124678 0)
(-1.5275 0.122758 -7.088e-20)
(-1.55826 0.120816 0)
(-1.58878 0.118847 0)
(-1.61904 0.116848 6.74879e-20)
(-1.64902 0.114815 1.33264e-19)
(-1.67872 0.112744 -6.58034e-20)
(-1.70809 0.11063 0)
(-1.73714 0.10847 6.39095e-20)
(-1.76582 0.106259 0)
(-1.79412 0.103996 6.18039e-20)
(-1.82201 0.101677 6.12269e-20)
(-1.84946 0.0992995 -1.20446e-19)
(-1.87645 0.0968623 -5.92391e-20)
(-1.90294 0.0943639 0)
(-1.92891 0.0918032 1.15469e-19)
(-1.95433 0.08918 0)
(-1.97917 0.086494 1.68515e-19)
(-2.00338 0.0837456 1.10676e-19)
(-2.02696 0.0809354 1.09106e-19)
(-2.04985 0.0780647 -1.07546e-19)
(-2.07203 0.0751346 1.591e-19)
(-2.09346 0.0721472 0)
(-2.11412 0.0691042 0)
(-2.13397 0.0660081 -1.01355e-19)
(-2.15298 0.062861 -1.498e-19)
(-2.17111 0.0596657 0)
(-2.18833 0.0564245 4.84266e-20)
(-2.20461 0.0531407 0)
(-2.21993 0.0498166 -1.40406e-19)
(-2.23424 0.0464556 -1.1409e-22)
(-2.24752 0.0430601 1.0051e-22)
(-2.25975 0.0396335 8.8764e-20)
(-2.27089 0.0361783 0)
(-2.28092 0.0326976 -8.54859e-20)
(-2.28981 0.0291943 -4.3305e-23)
(-2.29755 0.0256712 0)
(-2.30413 0.0221332 0)
(-2.30952 0.0185869 0)
(-2.31373 0.0150421 7.69213e-20)
(-2.31675 0.0115117 0)
(-2.31858 0.0080143 0)
(-2.31921 0.00457211 0)
(-2.31862 0.00119591 0)
(-2.31675 -0.00214159 0)
(-2.31353 -0.00546118 6.57398e-20)
(-2.30895 -0.00875509 0)
(-2.30296 -0.0120202 6.16056e-20)
(-2.29557 -0.0152549 5.95527e-20)
(-2.28675 -0.018456 -5.74708e-20)
(-2.27649 -0.0216205 0)
(-2.26478 -0.0247444 -5.32184e-20)
(-2.25162 -0.0278247 0)
(-2.23699 -0.0308578 -4.88464e-20)
(-2.2209 -0.0338411 4.66153e-20)
(-2.20335 -0.0367715 1.33628e-19)
(-2.18432 -0.0396463 0)
(-2.16384 -0.0424628 1.19855e-19)
(-2.14188 -0.0452183 3.80545e-20)
(-2.11847 -0.0479102 0)
(-2.09361 -0.0505362 6.59251e-20)
(-2.06729 -0.0530937 6.10774e-20)
(-2.03955 -0.0555803 -8.3862e-20)
(-2.01037 -0.0579935 0)
(-1.97979 -0.0603313 -2.2669e-20)
(-1.9478 -0.0625923 -2.01172e-20)
(-1.91443 -0.0647749 -5.35265e-20)
(-1.8797 -0.0668771 0)
(-1.84363 -0.0688961 0)
(-1.80623 -0.0708294 0)
(-1.76753 -0.0726747 -7.98919e-21)
(-1.72754 -0.0744311 0)
(-1.68631 -0.0760981 0)
(-1.64386 -0.0776763 -1.2035e-21)
(-1.60021 -0.0791662 -3.9713e-21)
(-1.55539 -0.0805684 0)
(-1.50944 -0.0818819 0)
(-1.46238 -0.0831026 -2.47851e-20)
(-1.41426 -0.084226 0)
(-1.36511 -0.0852572 3.6197e-20)
(-1.31496 -0.0861994 4.07116e-20)
(-1.26386 -0.0870505 0)
(-1.21185 -0.0878079 0)
(-1.15896 -0.0884733 -5.8091e-20)
(-1.10524 -0.0890479 -1.30092e-21)
(-1.05073 -0.0895333 -1.31469e-21)
(-0.995482 -0.0899305 0)
(-0.939532 -0.0902408 -1.64537e-19)
(-0.882928 -0.0904655 0)
(-0.825712 -0.0906066 0)
(-0.767931 -0.0906659 0)
(-0.70963 -0.0906456 1.06749e-19)
(-0.650852 -0.090548 0)
(-0.591644 -0.0903757 -2.34626e-19)
(-0.532049 -0.0901313 -1.2469e-19)
(-0.472112 -0.0898177 0)
(-0.411876 -0.089438 -1.36659e-19)
(-0.351383 -0.0889955 0)
(-0.290675 -0.0884932 0)
(-0.229791 -0.087935 -4.60896e-19)
(-0.168771 -0.0873238 3.18225e-19)
(-0.107651 -0.0866625 0)
(-0.0464657 -0.0859548 3.41951e-19)
(0.0147548 -0.0852061 -1.77358e-19)
(0.0759793 -0.0844196 0)
(0.137173 -0.0835959 0)
(0.198305 -0.0827333 0)
(0.259348 -0.081835 -5.68895e-19)
(0.320292 -0.0808976 0)
(0.381128 -0.0799167 -1.96513e-19)
(0.441833 -0.0789006 0)
(0.502394 -0.077874 0)
(0.562799 -0.0768587 0)
(0.623032 -0.0758566 0)
(0.68308 -0.0748607 0)
(0.742927 -0.0738588 0)
(0.802551 -0.0728317 -4.2875e-19)
(0.861909 -0.0717487 0)
(0.920932 -0.0705588 -2.19987e-19)
(0.979496 -0.069174 6.64258e-19)
(1.03741 -0.0674325 0)
(1.09427 -0.0650324 0)
(1.14978 -0.0613349 -4.54882e-19)
(1.20202 -0.0551127 -4.61639e-19)
(1.25402 -0.0434489 4.6694e-19)
(1.2935 -0.0188228 4.80965e-19)
(-0.00469844 -0.0301602 -2.99771e-18)
(-0.013109 -0.00763807 -1.27314e-18)
(-0.0232321 0.0141715 -4.60636e-19)
(-0.0349809 0.0333905 -1.64413e-19)
(-0.0477235 0.0505608 0)
(-0.0611228 0.0658933 2.38202e-19)
(-0.0752296 0.0794523 -1.08845e-19)
(-0.0901805 0.0912953 0)
(-0.106091 0.101547 -9.58322e-20)
(-0.123036 0.110407 0)
(-0.141045 0.118116 1.73292e-19)
(-0.160112 0.124918 0)
(-0.180208 0.131026 7.91038e-20)
(-0.201296 0.136611 1.51529e-19)
(-0.223338 0.1418 -1.45366e-19)
(-0.2463 0.146684 0)
(-0.270156 0.151323 -1.34453e-19)
(-0.294885 0.155758 0)
(-0.320471 0.16002 0)
(-0.346897 0.164129 -1.21155e-19)
(-0.37415 0.168101 0)
(-0.402212 0.171947 -3.55152e-23)
(-0.431065 0.175673 0)
(-0.460684 0.179283 0)
(-0.491037 0.18278 4.86842e-23)
(-0.522081 0.186161 -1.02624e-19)
(-0.553756 0.189421 -1.00336e-19)
(-0.585985 0.192548 -9.80942e-20)
(-0.618671 0.195515 0)
(-0.651687 0.198283 -1.88106e-19)
(-0.684879 0.200798 0)
(-0.718075 0.202994 -9.02287e-20)
(-0.751116 0.204786 0)
(-0.783871 0.206098 0)
(-0.816249 0.20688 8.47151e-20)
(-0.848182 0.207136 0)
(-0.879621 0.206906 -8.11946e-20)
(-0.910548 0.206161 3.36148e-23)
(-0.941007 0.204814 1.55569e-19)
(-0.971129 0.202826 -1.52311e-19)
(-1.00118 0.2 0)
(-1.0315 0.196771 0)
(-1.062 0.193928 -7.11906e-20)
(-1.09231 0.191427 0)
(-1.12228 0.189017 -6.83961e-20)
(-1.15199 0.186596 6.70427e-20)
(-1.18152 0.184183 6.57523e-20)
(-1.21088 0.181776 0)
(-1.24009 0.179368 -6.33401e-20)
(-1.26917 0.176955 -6.22099e-20)
(-1.29812 0.174534 1.22133e-19)
(-1.32694 0.172101 -6.00836e-20)
(-1.35563 0.169654 -5.9081e-20)
(-1.38418 0.167189 0)
(-1.41259 0.1647 0)
(-1.44084 0.162185 5.62819e-20)