# vtk DataFile Version 2.0
tracks
ASCII
DATASET POLYDATA
POINTS 12065 float
-0.0206 0.00099996 1e-05 -0.02058 0.000999963 1e-05 -0.02056 0.000999968 1e-05 -0.02054 0.000999976
1e-05 -0.02052 0.000999987 1e-05 -0.0205 0.001 1e-05 -0.0202034 0.0010002 1e-05
-0.0199069 0.00100061 1e-05 -0.0196103 0.00100122 1e-05 -0.0193137 0.00100202 1e-05 -0.0190172
0.00100301 1e-05 -0.0187132 0.00100435 1e-05 -0.0184093 0.00100547 1e-05 -0.0181054 0.00100659
1e-05 -0.0178015 0.00100771 1e-05 -0.0174976 0.00100882 1e-05 -0.0172058 0.00101005 1e-05
-0.016914 0.00101106 1e-05 -0.0166222 0.00101208 1e-05 -0.0163305 0.00101309 1e-05 -0.0160387
0.00101411 1e-05 -0.0157586 0.0010152 1e-05 -0.0154784 0.00101622 1e-05 -0.0151983 0.00101728
1e-05 -0.0149182 0.00101838 1e-05 -0.0146381 0.00101952 1e-05 -0.0143692 0.00102069 1e-05
-0.0141002 0.00102186 1e-05 -0.0138313 0.00102307 1e-05 -0.0135624 0.00102431 1e-05 -0.0132934
0.00102559 1e-05 -0.0132435 0.00102584 1e-05 -0.0131935 0.00102608 1e-05 -0.0131435 0.00102633
1e-05 -0.0130935 0.00102657 1e-05 -0.0130442 0.00102682 1e-05 -0.0128359 0.00102785 1e-05
-0.0126276 0.00102889 1e-05 -0.0124192 0.00102995 1e-05 -0.0122109 0.00103102 1e-05 -0.0120025
0.00103209 1e-05 -0.0117547 0.00103339 1e-05 -0.0115068 0.00103469 1e-05 -0.0112589 0.001036
1e-05 -0.0110111 0.00103731 1e-05 -0.0107632 0.00103863 1e-05 -0.0105252 0.0010399 1e-05
-0.0102873 0.00104117 1e-05 -0.0100493 0.00104244 1e-05 -0.00981133 0.00104371 1e-05 -0.00957337
0.00104498 1e-05 -0.00934491 0.0010462 1e-05 -0.00911645 0.00104741 1e-05 -0.008888 0.00104863
1e-05 -0.00865954 0.00104984 1e-05 -0.00843108 0.00105105 1e-05 -0.00821175 0.00105221 1e-05
-0.00799242 0.00105336 1e-05 -0.00777309 0.00105452 1e-05 -0.00755376 0.00105566 1e-05 -0.00733443
0.00105681 1e-05 -0.00712387 0.0010579 1e-05 -0.0069133 0.00105899 1e-05 -0.00670273 0.00106008
1e-05 -0.00649216 0.00106116 1e-05 -0.0062816 0.00106224 1e-05 -0.00607944 0.00106326 1e-05
-0.00587729 0.00106429 1e-05 -0.00567514 0.00106531 1e-05 -0.00547298 0.00106633 1e-05 -0.00527083
0.00106735 1e-05 -0.00507675 0.00106831 1e-05 -0.00488267 0.00106928 1e-05 -0.0046886 0.00107024
1e-05 -0.00449452 0.0010712 1e-05 -0.00430044 0.00107215 1e-05 -0.00411412 0.00107306 1e-05
-0.0039278 0.00107397 1e-05 -0.00374147 0.00107488 1e-05 -0.00355515 0.00107579 1e-05 -0.00336883
0.00107669 1e-05 -0.00318995 0.00107755 1e-05 -0.00301107 0.00107841 1e-05 -0.00283219 0.00107927
1e-05 -0.00265331 0.00108013 1e-05 -0.00247443 0.00108098 1e-05 -0.0023027 0.0010818 1e-05
-0.00213097 0.00108262 1e-05 -0.00195924 0.00108344 1e-05 -0.0017875 0.00108426 1e-05 -0.00161577
0.00108507 1e-05 -0.0014509 0.00108585 1e-05 -0.00128603 0.00108663 1e-05 -0.00112116 0.00108742
1e-05 -0.000956289 0.00108821 1e-05 -0.000791418 0.001089 1e-05 -0.000633135 0.00108976 1e-05
-0.000474851 0.00109052 1e-05 -0.000316567 0.00109129 1e-05 -0.000158284 0.00109206 1e-05 0
0.00109283 1e-05 0.000105677 0.00109334 1e-05 0.000211355 0.00109386 1e-05 0.000317032 0.00109437
1e-05 0.00042271 0.00109488 1e-05 0.000528387 0.00109539 1e-05 0.000634886 0.00109589 1e-05
0.000741385 0.00109639 1e-05 0.000847885 0.00109689 1e-05 0.000954384 0.00109739 1e-05 0.00106088
0.00109788 1e-05 0.00116821 0.00109836 1e-05 0.00127554 0.00109885 1e-05 0.00138286 0.00109933
1e-05 0.00149019 0.0010998 1e-05 0.00159752 0.00110026 1e-05 0.00170568 0.00110072 1e-05
0.00181384 0.00110117 1e-05 0.001922 0.00110161 1e-05 0.00203016 0.00110205 1e-05 0.00213833
0.00110247 1e-05 0.00224733 0.00110289 1e-05 0.00235633 0.0011033 1e-05 0.00246533 0.00110371
1e-05 0.00257434 0.0011041 1e-05 0.00268334 0.00110449 1e-05 0.00279319 0.00110486 1e-05
0.00290304 0.00110523 1e-05 0.00301289 0.0011056 1e-05 0.00312274 0.00110595 1e-05 0.00323259
0.0011063 1e-05 0.00334329 0.00110664 1e-05 0.003454 0.00110697 1e-05 0.0035647 0.0011073
1e-05 0.0036754 0.00110762 1e-05 0.00378611 0.00110793 1e-05 0.00389767 0.00110823 1e-05
0.00400924 0.00110853 1e-05 0.0041208 0.00110882 1e-05 0.00423237 0.0011091 1e-05 0.00434393
0.00110937 1e-05 0.00445636 0.00110964 1e-05 0.00456879 0.0011099 1e-05 0.00468123 0.00111015
1e-05 0.00479366 0.00111039 1e-05 0.00490609 0.00111063 1e-05 0.0050194 0.00111086 1e-05
0.0051327 0.00111108 1e-05 0.00524601 0.00111129 1e-05 0.00535932 0.0011115 1e-05 0.00547262
0.0011117 1e-05 0.00558681 0.00111189 1e-05 0.005701 0.00111207 1e-05 0.00581518 0.00111225
1e-05 0.00592937 0.00111242 1e-05 0.00604356 0.00111258 1e-05 0.00615863 0.00111273 1e-05
0.00627371 0.00111288 1e-05 0.00638878 0.00111302 1e-05 0.00650386 0.00111315 1e-05 0.00661893
0.00111327 1e-05 0.0067349 0.00111339 1e-05 0.00685087 0.00111349 1e-05 0.00696684 0.0011136
1e-05 0.00708281 0.00111369 1e-05 0.00719878 0.00111378 1e-05 0.00728203 0.00111383 1e-05
0.00736528 0.00111388 1e-05 0.00744853 0.00111393 1e-05 0.00753178 0.00111397 1e-05 0.00761163
0.00111401 1e-05 0.00764593 0.00111403 1e-05 0.00768023 0.00111404 1e-05 0.00771453 0.00111406
1e-05 0.00774883 0.00111407 1e-05 0.00778313 0.00111408 1e-05 0.00790091 0.00111412 1e-05
0.00801869 0.00111415 1e-05 0.00813647 0.00111417 1e-05 0.00825425 0.00111419 1e-05 0.00837203
0.00111419 1e-05 0.00849073 0.00111419 1e-05 0.00860942 0.00111418 1e-05 0.00872812 0.00111416
1e-05 0.00884682 0.00111414 1e-05 0.00896551 0.0011141 1e-05 0.00908513 0.00111405 1e-05
0.00920475 0.001114 1e-05 0.00932437 0.00111394 1e-05 0.00944398 0.00111387 1e-05 0.0095636
0.0011138 1e-05 0.00968415 0.0011137 1e-05 0.0098047 0.0011136 1e-05 0.00992525 0.0011135
1e-05 0.0100458 0.00111339 1e-05 0.0101663 0.00111327 1e-05 0.0102878 0.00111313 1e-05
0.0104093 0.00111299 1e-05 0.0105308 0.00111284 1e-05 0.0106523 0.00111268 1e-05 0.0107738
0.00111252 1e-05 0.0108962 0.00111233 1e-05 0.0110186 0.00111214 1e-05 0.0111411 0.00111195
1e-05 0.0112635 0.00111175 1e-05 0.0113859 0.00111154 1e-05 0.0115093 0.0011113 1e-05
0.0116327 0.00111107 1e-05 0.0117561 0.00111082 1e-05 0.0118795 0.00111057 1e-05 0.0120028
0.00111031 1e-05 0.0121272 0.00111003 1e-05 0.0122515 0.00110975 1e-05 0.0123759 0.00110946
1e-05 0.0125002 0.00110916 1e-05 0.0126245 0.00110885 1e-05 0.0127498 0.00110851 1e-05
0.0128752 0.00110818 1e-05 0.0130005 0.00110784 1e-05 0.0131258 0.00110749 1e-05 0.0132511
0.00110713 1e-05 0.0133774 0.00110675 1e-05 0.0135036 0.00110637 1e-05 0.0136299 0.00110597
1e-05 0.0137562 0.00110557 1e-05 0.0138825 0.00110516 1e-05 0.0140098 0.00110473 1e-05
0.014137 0.00110429 1e-05 0.0142643 0.00110385 1e-05 0.0143915 0.00110339 1e-05 0.0145188
0.00110293 1e-05 0.0146471 0.00110244 1e-05 0.0147753 0.00110195 1e-05 0.0149036 0.00110146
1e-05 0.0150318 0.00110095 1e-05 0.0151601 0.00110043 1e-05 0.0152893 0.00109989 1e-05
0.0154186 0.00109935 1e-05 0.0155478 0.00109879 1e-05 0.0156771 0.00109823 1e-05 0.0158063
0.00109766 1e-05 0.0159366 0.00109707 1e-05 0.0160668 0.00109647 1e-05 0.0161971 0.00109586
1e-05 0.0163273 0.00109524 1e-05 0.0164576 0.00109462 1e-05 0.0165889 0.00109398 1e-05
0.0167201 0.00109332 1e-05 0.0168514 0.00109266 1e-05 0.0169827 0.00109198 1e-05 0.0171139
0.0010913 1e-05 0.0172462 0.00109061 1e-05 0.0173785 0.0010899 1e-05 0.0175108 0.00108918
1e-05 0.0176431 0.00108845 1e-05 0.0177754 0.00108771 1e-05 0.0179087 0.00108697 1e-05
0.018042 0.0010862 1e-05 0.0181753 0.00108542 1e-05 0.0183087 0.00108463 1e-05 0.018442
0.00108384 1e-05 0.0185763 0.00108304 1e-05 0.0187107 0.00108223 1e-05 0.018845 0.00108139
1e-05 0.0189794 0.00108054 1e-05 0.0191137 0.00107969 1e-05 0.0192491 0.00107884 1e-05
0.0193845 0.00107797 1e-05 0.0195199 0.00107707 1e-05 0.0196553 0.00107617 1e-05 0.0197907
0.00107526 1e-05 0.0199272 0.00107436 1e-05 0.0200636 0.00107343 1e-05 0.0202001 0.00107248
1e-05 0.0203365 0.00107151 1e-05 0.020473 0.00107055 1e-05 0.0206105 0.00106959 1e-05
0.020748 0.00106861 1e-05 0.0208855 0.0010676 1e-05 0.021023 0.00106658 1e-05 0.0211606
0.00106556 1e-05 0.0212991 0.00106455 1e-05 0.0214377 0.0010635 1e-05 0.0215763 0.00106244
1e-05 0.0217149 0.00106136 1e-05 0.0218535 0.00106029 1e-05 0.0219931 0.00105921 1e-05
0.0221328 0.00105811 1e-05 0.0222724 0.00105699 1e-05 0.0224121 0.00105585 1e-05 0.0225517
0.00105472 1e-05 0.0226925 0.00105359 1e-05 0.0228332 0.00105244 1e-05 0.022974 0.00105125
1e-05 0.0231147 0.00105006 1e-05 0.0232555 0.00104887 1e-05 0.0233973 0.00104768 1e-05
0.0235391 0.00104647 1e-05 0.023681 0.00104522 1e-05 0.0238228 0.00104397 1e-05 0.0239647
0.00104273 1e-05 0.0241076 0.00104148 1e-05 0.0242505 0.00104021 1e-05 0.0243935 0.0010389
1e-05 0.0245364 0.00103759 1e-05 0.0246794 0.00103628 1e-05 0.0248234 0.00103498 1e-05
0.0249675 0.00103364 1e-05 0.0251115 0.00103228 1e-05 0.0252556 0.00103091 1e-05 0.0253996
0.00102954 1e-05 0.0255448 0.00102818 1e-05 0.02569 0.00102678 1e-05 0.0258351 0.00102536
1e-05 0.0259803 0.00102393 1e-05 0.0261255 0.0010225 1e-05 0.0262718 0.00102107 1e-05
0.0264181 0.00101961 1e-05 0.0265644 0.00101813 1e-05 0.0267107 0.00101664 1e-05 0.026857
0.00101515 1e-05 0.0270044 0.00101366 1e-05 0.0271519 0.00101213 1e-05 0.0272993 0.00101059
1e-05 0.0274468 0.00100903 1e-05 0.0275942 0.00100748 1e-05 0.0277428 0.00100592 1e-05
0.0278914 0.00100433 1e-05 0.0280399 0.00100272 1e-05 0.0281885 0.0010011 1e-05 0.0283371
0.000999481 1e-05 0.0284869 0.000997854 1e-05 0.0286366 0.000996195 1e-05 0.0287863 0.000994521
1e-05 0.0289361 0.000992837 1e-05 0.0290858 0.000991146 1e-05 0.0292367 0.000989448 1e-05
0.0293876 0.000987718 1e-05 0.0295385 0.000985977 1e-05 0.0296894 0.000984224 1e-05 0.0298403
0.000982462 1e-05 0.0299924 0.000980691 1e-05 0.0301445 0.00097889 1e-05 0.0302966 0.000977078
1e-05 0.0304486 0.000975254 1e-05 0.0306007 0.00097342 1e-05 0.030754 0.000971574 1e-05
0.0309072 0.0009697 1e-05 0.0310605 0.000967814 1e-05 0.0312138 0.000965917 1e-05 0.031367
0.000964009 1e-05 0.0315215 0.000962084 1e-05 0.0316759 0.000960135 1e-05 0.0318304 0.000958173
1e-05 0.0319848 0.0009562 1e-05 0.0321393 0.000954214 1e-05 0.0322949 0.000952208 1e-05
0.0324506 0.00095018 1e-05 0.0326062 0.000948139 1e-05 0.0327619 0.000946085 1e-05 0.0329175
[...]
POINT_DATA 12065
FIELD attributes 4
age 1 12065 float
-9.99968e-06 -7.9997e-06 -5.99975e-06 -3.99981e-06 -1.99989e-06 0 2.96552e-05 5.93039e-05 8.89461e-05 0.000118582 0.000148211
0.000178558 0.000208897 0.000239222 0.000269533 0.00029983 0.000328899 0.00035796 0.000387008 0.000416046 0.000445071
0.000472926 0.000500774 0.000528617 0.000556452 0.000584281 0.000610994 0.000637702 0.000664407 0.000691108 0.000717807
0.000722769 0.000727731 0.000732692 0.000737654 0.000742544 0.000763225 0.000783904 0.000804583 0.000825261 0.000845939
0.000870538 0.000895139 0.00091974 0.000944342 0.000968946 0.000992568 0.00101619 0.00103982 0.00106345 0.00108708
0.00110977 0.00113246 0.00115515 0.00117785 0.00120056 0.00122236 0.00124416 0.00126597 0.00128778 0.00130959
0.00133054 0.00135149 0.00137245 0.00139341 0.00141437 0.00143451 0.00145464 0.00147478 0.00149492 0.00151507
0.00153443 0.00155378 0.00157313 0.00159249 0.00161186 0.00163047 0.00164906 0.00166767 0.00168628 0.00170489
0.00172277 0.00174065 0.00175853 0.00177642 0.00179431 0.0018115 0.00182868 0.00184587 0.00186306 0.00188026
0.00189678 0.00191329 0.00192981 0.00194634 0.00196286 0.00197875 0.00199462 0.00201049 0.00202637 0.00204225
0.00205286 0.00206346 0.00207407 0.00208468 0.00209529 0.00210599 0.00211668 0.00212738 0.00213807 0.00214877
0.00215957 0.00217035 0.00218113 0.00219192 0.00220271 0.0022136 0.00222447 0.00223535 0.00224623 0.00225712
0.0022681 0.00227907 0.00229004 0.00230102 0.002312 0.00232308 0.00233414 0.00234522 0.00235629 0.00236737
0.00237855 0.00238972 0.00240089 0.00241207 0.00242325 0.00243453 0.00244581 0.00245709 0.00246837 0.00247966
0.00249105 0.00250243 0.00251382 0.00252521 0.00253661 0.00254811 0.0025596 0.0025711 0.00258261 0.00259412
0.00260573 0.00261735 0.00262896 0.00264059 0.00265222 0.00266395 0.00267568 0.00268742 0.00269917 0.00271092
0.00272278 0.00273463 0.0027465 0.00275837 0.00277025 0.00277879 0.00278733 0.00279587 0.00280441 0.00281262
0.00281614 0.00281967 0.00282319 0.00282672 0.00283025 0.00284236 0.00285449 0.00286662 0.00287876 0.00289091
0.00290318 0.00291544 0.00292772 0.00294 0.0029523 0.00296472 0.00297713 0.00298955 0.00300198 0.00301443
0.003027 0.00303957 0.00305214 0.00306473 0.00307732 0.00309007 0.00310279 0.00311552 0.00312826 0.00314102
0.00315393 0.00316681 0.00317971 0.00319262 0.00320554 0.00321862 0.00323167 0.00324474 0.00325781 0.00327091
0.00328416 0.00329739 0.00331063 0.00332388 0.00333714 0.00335058 0.00336399 0.0033774 0.00339083 0.00340428
0.00341791 0.00343149 0.00344509 0.00345871 0.00347234 0.00348615 0.00349992 0.00351371 0.00352751 0.00354134
0.00355534 0.00356931 0.00358329 0.00359729 0.00361131 0.00362551 0.00363968 0.00365386 0.00366805 0.00368228
0.00369668 0.00371105 0.00372543 0.00373982 0.00375425 0.00376886 0.00378344 0.00379802 0.00381262 0.00382725
0.00384207 0.00385686 0.00387164 0.00388645 0.0039013 0.00391632 0.00393132 0.00394632 0.00396133 0.00397639
0.00399163 0.00400685 0.00402205 0.00403728 0.00405256 0.00406801 0.00408344 0.00409887 0.00411431 0.0041298
0.00414547 0.00416112 0.00417677 0.00419243 0.00420815 0.00422403 0.00423991 0.00425577 0.00427166 0.0042876
0.0043037 0.0043198 0.0043359 0.00435201 0.00436817 0.0043845 0.00440082 0.00441714 0.00443348 0.00444986
0.00446642 0.00448297 0.00449952 0.00451609 0.0045327 0.00454947 0.00456625 0.00458303 0.00459983 0.00461667
0.00463367 0.00465068 0.0046677 0.00468472 0.00470179 0.00471903 0.00473627 0.00475351 0.00477077 0.00478807
0.00480554 0.00482301 0.00484049 0.00485799 0.00487552 0.00489322 0.00491092 0.00492864 0.00494638 0.00496414
0.00498207 0.00500002 0.00501797 0.00503594 0.00505394 0.00507211 0.00509029 0.00510848 0.00512669 0.00514493
0.00516333 0.00518175 0.00520018 0.00521863 0.0052371 0.00525575 0.00527441 0.00529308 0.00531177 0.00533048
0.00534937 0.00536826 0.00538718 0.00540611 0.00542507 0.00544419 0.00546333 0.00548249 0.00550167 0.00552086
0.00554023 0.00555962 0.00557902 0.00559845 0.00561789 0.0056375 0.00565713 0.00567678 0.00569645 0.00571613
0.005736 0.00575587 0.00577577 0.00579569 0.00581562 0.00582925 0.00584288 0.00585652 0.00587018 0.00588342
0.00589 0.00589659 0.00590318 0.00590978 0.00591637 0.00593673 0.00595711 0.00597751 0.00599793 0.00601836
0.00603898 0.00605961 0.00608026 0.00610094 0.00612163 0.0061425 0.00616339 0.0061843 0.00620523 0.00622618
0.00624731 0.00626846 0.00628962 0.00631081 0.00633202 0.00635341 0.00637482 0.00639625 0.0064177 0.00643917
0.00646082 0.00648249 0.00650419 0.0065259 0.00654764 0.00656955 0.00659149 0.00661345 0.00663543 0.00665743
0.0066796 0.00670181 0.00672404 0.00674629 0.00676855 0.006791 0.00681347 0.00683597 0.00685849 0.00688103
0.00690375 0.00692649 0.00694926 0.00697206 0.00699487 0.00701786 0.00704088 0.00706393 0.007087 0.00711008
0.00713336 0.00715666 0.00717998 0.00720333 0.00722669 0.00725025 0.00727383 0.00729744 0.00732107 0.00734471
0.00736855 0.00739241 0.00741631 0.00744022 0.00746415 0.00748828 0.00751243 0.00753662 0.00756082 0.00758504
0.00760946 0.00763391 0.00765838 0.00768288 0.00770739 0.0077321 0.00775685 0.00778162 0.00780641 0.00783122
0.00785624 0.00788129 0.00790636 0.00793145 0.00795656 0.00798188 0.00800723 0.00803261 0.00805801 0.00808342
0.00810906 0.00813472 0.0081604 0.00818611 0.00821184 0.00823779 0.00826377 0.00828976 0.00831579 0.00834183
0.00835754 0.00837325 0.00838898 0.00840471 0.00841982 0.00843054 0.00844126 0.00845199 0.00846273 0.00847346
0.00850006 0.00852669 0.00855334 0.00858001 0.00860671 0.00863364 0.0086606 0.00868759 0.0087146 0.00874165
0.00876891 0.00879622 0.00882355 0.0088509 0.00887829 0.00890591 0.00893356 0.00896124 0.00898895 0.00901668
0.00904465 0.00907265 0.00910069 0.00912876 0.00915686 0.00918518 0.00921355 0.00924196 0.00927039 0.00929885
0.00932755 0.00935628 0.00938506 0.00941387 0.0094427 0.00947178 0.00950089 0.00953005 0.00955924 0.00958845
0.00961791 0.00964742 0.00967697 0.00970655 0.00973615 0.009766 0.00979591 0.00982585 0.00985583 0.00988583
0.00991609 0.0099464 0.00997675 0.0100071 0.0100376 0.0100682 0.010099 0.0101297 0.0101605 0.0101914
0.0102225 0.0102536 0.0102848 0.010316 0.0103473 0.0103545 0.0103617 0.0103689 0.0103761 0.0103832
0.0104076 0.0104321 0.0104565 0.010481 0.0105055 0.0105375 0.0105696 0.0106016 0.0106338 0.010666
0.0106985 0.010731 0.0107636 0.0107962 0.0108288 0.0108618 0.0108948 0.0109279 0.010961 0.0109942
0.0110276 0.0110612 0.0110947 0.0111284 0.0111621 0.011196 0.0112301 0.0112642 0.0112983 0.0113326
0.0113671 0.0114017 0.0114363 0.011471 0.0115058 0.0115408 0.011576 0.0116112 0.0116465 0.0116818
0.0117174 0.0117532 0.0117889 0.0118248 0.0118607 0.0118726 0.0118844 0.0118963 0.0119082 0.0119198
0.0119443 0.0119689 0.0119935 0.0120181 0.0120427 0.0120796 0.0121165 0.0121535 0.0121906 0.0122277
0.0122652 0.0123027 0.0123404 0.0123781 0.0124159 0.012454 0.0124922 0.0125305 0.0125689 0.0126073
0.0126461 0.012685 0.012724 0.0127631 0.0128022 0.0128417 0.0128814 0.0129211 0.0129608 0.0130007
0.013041 0.0130813 0.0131218 0.0131623 0.0132029 0.0132281 0.0132533 0.0132786 0.0133039 0.0133281
0.0133443 0.0133605 0.0133767 0.0133929 0.0134092 0.013451 0.013493 0.013535 0.0135771 0.0136194
0.013662 0.0137048 0.0137476 0.0137906 0.0138337 0.0138772 0.0139208 0.0139646 0.0140084 0.0140524
0.0140968 0.0141414 0.014186 0.0142308 0.0142757 0.014321 0.0143665 0.0144121 0.0144579 0.0145038
0.0145391 0.0145746 0.0146101 0.0146457 0.0146797 0.0146912 0.0147026 0.0147141 0.0147255 0.014737
0.0147844 0.0148319 0.0148796 0.0149274 0.0149753 0.0150238 0.0150724 0.0151211 0.01517 0.015219
0.0152686 0.0153183 0.0153682 0.0154182 0.0154684 0.0155191 0.01557 0.0156211 0.0156723 0.0157237
0.0157757 0.0158279 0.0158802 0.0159326 0.0159853 0.0159934 0.0160014 0.0160095 0.0160176 0.0160256
0.0160709 0.0161164 0.016162 0.0162077 0.0162536 0.0163081 0.0163629 0.0164179 0.016473 0.0165284
0.0165844 0.0166405 0.0166969 0.0167535 0.0168103 0.0168677 0.0169253 0.0169832 0.0170412 0.0170995
0.0171585 0.0172177 0.0172771 0.0173367 0.0173966 0.017399 0.0174014 0.0174038 0.0174062 0.0174086
0.0174668 0.0175252 0.0175838 0.0176426 0.0177017 0.0177639 0.0178263 0.017889 0.0179519 0.0180151
0.018079 0.0181432 0.0182076 0.0182722 0.0183372 0.0184029 0.0184689 0.0185351 0.0186016 0.0186684
0.0187089 0.0187495 0.0187902 0.018831 0.0188711 0.0188986 0.0189263 0.0189539 0.0189817 0.0190094
0.0190789 0.0191487 0.0192188 0.0192892 0.0193599 0.0194314 0.0195032 0.0195753 0.0196477 0.0197204
0.019794 0.0198679 0.0199421 0.0200166 0.0200915 0.0201645 0.0202378 0.0203114 0.0203854 0.0204579
0.020461 0.0204642 0.0204673 0.0204705 0.0204736 0.0205516 0.02063 0.0207087 0.0207877 0.020867
0.0209473 0.021028 0.0211089 0.0211903 0.021272 0.0213547 0.0214377 0.0215211 0.0216049 0.021689
0.0217742 0.0218597 0.0219456 0.0220319 0.0221185 0.0221385 0.0221585 0.0221785 0.0221985 0.0222185
0.0222866 0.0223549 0.0224235 0.0224923 0.0225613 0.0226516 0.0227423 0.0228334 0.0229249 0.0230168
0.0231098 0.0232032 0.023297 0.0233912 0.0234858 0.0235816 0.0236778 0.0237744 0.0238714 0.0239688
0.0240177 0.0240667 0.0241158 0.024165 0.0242143 0.0242646 0.024315 0.0243654 0.024416 0.0244667
0.0245683 0.0246702 0.0247726 0.0248754 0.0249786 0.0250831 0.025188 0.0252934 0.0253992 0.0255054
0.0256129 0.0257208 0.0258292 0.0259381 0.0260474 0.0261406 0.026234 0.0263279 0.026422 0.0265173
0.0265349 0.0265525 0.0265701 0.0265878 0.0266054 0.0267192 0.0268335 0.0269482 0.0270634 0.027179
0.0272959 0.0274134 0.0275313 0.0276497 0.0277685 0.0278887 0.0280094 0.0281306 0.0282523 0.0283744
0.0284979 0.0286219 0.0287465 0.0288715 0.0289969 0.0290376 0.0290783 0.0291191 0.0291599 0.029201
0.0292878 0.0293747 0.029462 0.0295494 0.029637 0.0297673 0.0298981 0.0300294 0.0301612 0.0302934
0.030427 0.0305612 0.030696 0.0308312 0.0309668 0.0311038 0.0312415 0.0313796 0.0315183 0.0316573
0.0317864 0.0319159 0.0320459 0.0321762 0.0323082 0.0323196 0.0323311 0.0323425 0.032354 0.0323654
0.0325095 0.0326542 0.0327993 0.0329449 0.033091 0.0332387 0.0333869 0.0335356 0.0336849 0.0338346
0.0339858 0.0341375 0.0342899 0.0344428 0.034596 0.0347508 0.0349063 0.0350622 0.0352186 0.0353754
0.0354272 0.0354791 0.035531 0.035583 0.0356349 0.0357422 0.0358497 0.0359574 0.0360653 0.0361735
0.0363356 0.0364982 0.0366614 0.036825 0.036989 0.0371547 0.0373209 0.0374877 0.0376549 0.0378226
0.0379919 0.0381617 0.0383321 0.0385028 0.0386741 0.038765 0.038856 0.0389471 0.0390383 0.0391287
0.0392116 0.0392945 0.0393776 0.0394608 0.0395441 0.0397206 0.0398976 0.040075 0.0402529 0.0404313
0.0406112 0.0407917 0.0409727 0.0411541 0.0413359 0.0415194 0.0417033 0.0418877 0.0420725 0.0422577
0.0423344 0.0424111 0.0424879 0.0425648 0.0426407 0.0427517 0.0428627 0.0429739 0.0430852 0.0431967
0.0433869 0.0435775 0.0437685 0.0439598 0.0441515 0.0443448 0.0445385 0.0447326 0.044927 0.0451217
0.0453119 0.0455025 0.0456932 0.0458842 0.0460703 0.0460775 0.0460848 0.046092 0.0460992 0.0461064
0.0463056 0.046505 0.0467047 0.0469045 0.0471046 0.0473063 0.0475082 0.0477103 0.0479126 0.048115
0.0483189 0.048523 0.0487272 0.0489315 0.0491358 0.0491892 0.0492426 0.0492959 0.0493493 0.0494026
0.0495552 0.0497078 0.0498604 0.050013 0.0501656 0.050373 0.0505804 0.0507878 0.0509951 0.0512023
0.0514108 0.0516193 0.0518276 0.0520358 0.0522436 0.0523356 0.0524274 0.0525193 0.0526111 0.0527043
0.0528211 0.0529377 0.0530543 0.0531708 0.0532871 0.0534966 0.0537057 0.0539146 0.0541232 0.054331
0.0545401 0.0547489 0.0549573 0.0551653 0.0553724 0.0555266 0.0556806 0.0558343 0.0559877 0.0561552
0.0562058 0.0562564 0.0563069 0.0563574 0.0564079 0.0566148 0.056821 0.0570267 0.0572317 0.0574355
0.0576406 0.057845 0.0580488 0.0582517 0.0584529 0.0586468 0.0588401 0.0590325 0.0592241 0.0594141
0.0594269 0.0594396 0.0594524 0.0594652 0.0594781 0.0596616 0.0598441 0.0600256 0.060206 0.060385
0.0605831 0.0607799 0.0609755 0.0611697 0.0613623 0.0615096 0.0616562 0.061802 0.061947 0.0621143
0.0621597 0.0622051 0.0622503 0.0622955 0.0623406 0.0625395 0.0627368 0.0629325 0.0631266 0.0633188
0.063517 0.0637134 0.0639081 0.064101 0.0642921 0.0644629 0.0646324 0.0648004 0.0649671 0.0651728
0.0651896 0.0652064 0.0652232 0.06524 0.0652568 0.0654517 0.0656447 0.0658358 0.066025 0.0662123
0.0664051 0.0665959 0.0667847 0.0669716 0.0671567 0.067347 0.0675354 0.0677217 0.0679062 0.0680888
0.0682753 0.0684597 0.0686422 0.0688228 0.0690084 0.0690196 0.0690308 0.069042 0.0690531 0.0690645
0.069238 0.0694097 0.0695797 0.069748 0.0699149 0.0700976 0.0702784 0.0704572 0.0706342 0.0708096
0.0709899 0.0711683 0.0713448 0.0715194 0.0716926 0.0718706 0.0720468 0.072221 0.0723936 0.0725645
0.0727405 0.0729145 0.0730868 0.0732573 0.0734264 0.0736003 0.0737724 0.0739428 0.0741116 0.0742788
0.0744509 0.0746213 0.07479 0.0749571 0.0751227 0.0751579 0.075193 0.075228 0.0752629 0.0753008
0.0754341 0.0755664 0.0756977 0.0758281 0.0759575 0.0761265 0.0762938 0.0764596 0.0766238 0.0767865
0.0769541 0.0771199 0.0772843 0.0774471 0.0776085 0.077775 0.0779399 0.0781031 0.0782648 0.078425
0.0785899 0.0787527 0.0789139 0.0790737 0.0792325 0.0793968 0.0795598 0.0797214 0.0798811 0.0800384
0.0801991 0.0803568 0.0805117 0.0806653 0.080819 -9.99997e-06 -7.99997e-06 -5.99998e-06 -3.99998e-06 -1.99999e-06
0 2.96566e-05 5.93127e-05 8.89678e-05 0.000118621 0.000148273 0.000178657 0.000209038 0.000239415 0.000269789
0.000300159 0.00032931 0.000358456 0.000387597 0.000416734 0.000445865 0.000473827 0.000501784 0.000529737 0.000557685
0.000585628 0.00061245 0.000639267 0.000666081 0.00069289 0.000719695 0.000745425 0.000771151 0.000796874 0.000822592
0.000848306 0.000872989 0.000897669 0.000922345 0.000947017 0.000971686 0.000995365 0.00101904 0.00104271 0.00106639
0.00109005 0.00111277 0.00113549 0.0011582 0.00118091 0.00120361 0.00122541 0.00124721 0.001269 0.00129079
0.00131257 0.00133349 0.0013544 0.00137531 0.00139622 0.00141712 0.00143719 0.00145725 0.00147732 0.00149738
0.00151744 0.00153669 0.00155595 0.0015752 0.00159445 0.0016137 0.00163217 0.00165065 0.00166912 0.0016876
0.00170607 0.0017238 0.00174153 0.00175925 0.00177698 0.0017947 0.00181172 0.00182873 0.00184574 0.00186275
0.00187976 0.00189609 0.00191242 0.00192874 0.00194506 0.00196138 0.00197705 0.00199272 0.00200839 0.00202405
0.00203971 0.00205017 0.00206063 0.00207108 0.00208154 0.00209199 0.00210252 0.00211306 0.00212359 0.00213412
0.00214466 0.00215527 0.00216588 0.00217649 0.00218711 0.00219772 0.00220841 0.0022191 0.00222979 0.00224048
0.00225117 0.00226195 0.00227272 0.00228349 0.00229426 0.00230503 0.00231589 0.00232674 0.00233759 0.00234845
0.0023593 0.00237024 0.00238117 0.00239211 0.00240304 0.00241397 0.00242499 0.00243601 0.00244703 0.00245804
0.00246906 0.00248016 0.00249126 0.00250237 0.00251347 0.00252457 0.00253575 0.00254694 0.00255812 0.00256931
0.00258049 0.00259177 0.00260304 0.00261431 0.00262558 0.00263685 0.0026482 0.00265956 0.00267092 0.00268227
0.00269363 0.00270508 0.00271652 0.00272796 0.00273941 0.00275085 0.00276238 0.00277391 0.00278544 0.00279697
0.0028085 0.00282012 0.00283174 0.00284336 0.00285498 0.0028666 0.00287831 0.00289002 0.00290173 0.00291344
0.00292514 0.00293694 0.00294874 0.00296054 0.00297234 0.00298413 0.00299602 0.00300791 0.0030198 0.00303169
0.00304358 0.00305556 0.00306754 0.00307952 0.0030915 0.00310348 0.00311555 0.00312763 0.0031397 0.00315177
0.00316384 0.00317601 0.00318817 0.00320034 0.0032125 0.00322467 0.00323693 0.00324919 0.00326144 0.0032737
0.00328596 0.00329831 0.00331067 0.00332302 0.00333537 0.00334772 0.00336017 0.00337262 0.00338507 0.00339752
0.00340996 0.00342251 0.00343505 0.00344759 0.00346014 0.00347268 0.00348532 0.00349796 0.0035106 0.00352324
0.00353588 0.00354862 0.00356135 0.00357409 0.00358683 0.00359956 0.0036124 0.00362523 0.00363807 0.0036509
0.00366374 0.00367667 0.0036896 0.00370254 0.00371547 0.0037284 0.00373714 0.00374588 0.00375462 0.00376336
0.00377206 0.00377636 0.00378066 0.00378496 0.00378926 0.00379356 0.0038067 0.00381983 0.00383296 0.0038461
0.00385923 0.00387246 0.0038857 0.00389893 0.00391216 0.0039254 0.00393873 0.00395207 0.0039654 0.00397874
0.00399207 0.00400551 0.00401895 0.00403239 0.00404582 0.00405926 0.0040728 0.00408634 0.00409988 0.00411343
0.00412697 0.00414061 0.00415426 0.0041679 0.00418155 0.00419519 0.00420894 0.00422269 0.00423644 0.00425019
0.00426394 0.0042778 0.00429165 0.00430551 0.00431936 0.00433322 0.00434718 0.00436114 0.00437511 0.00438907
0.00440303 0.0044171 0.00443117 0.00444524 0.00445931 0.00447338 0.00448756 0.00450174 0.00451592 0.00453009
0.00454427 0.00455856 0.00457285 0.00458714 0.00460142 0.00461571 0.00463011 0.00464451 0.0046589 0.0046733
0.0046877 0.00470221 0.00471672 0.00473123 0.00474574 0.00476025 0.00477487 0.00478949 0.00480411 0.00481873
0.00483336 0.00484809 0.00486283 0.00487756 0.0048923 0.00490703 0.00492189 0.00493674 0.00495158 0.00496643
0.00498128 0.00499625 0.00501122 0.00502618 0.00504114 0.00505611 0.00507119 0.00508628 0.00510136 0.00511644
0.00513152 0.00514672 0.00516192 0.00517712 0.00519232 0.00520752 0.00522284 0.00523816 0.00525348 0.0052688
0.00528412 0.00529956 0.005315 0.00533044 0.00534588 0.00536132 0.00537688 0.00539244 0.005408 0.00542357
0.00543913 0.00545482 0.0054705 0.00548618 0.00550187 0.00551756 0.00553337 0.00554918 0.00556498 0.0055808
0.00559661 0.00561254 0.00562848 0.00564442 0.00566035 0.00567629 0.00569235 0.00570842 0.00572448 0.00574055
0.00575661 0.0057728 0.005789 0.00580519 0.00582139 0.00583758 0.00583946 0.00584133 0.0058432 0.00584508
0.00584695 0.0058614 0.00587585 0.0058903 0.00590476 0.00591921 0.00593567 0.00595213 0.00596858 0.00598504
0.00600151 0.0060181 0.0060347 0.00605129 0.00606788 0.00608448 0.00610122 0.00611795 0.00613468 0.00615141
0.00616815 0.00618503 0.0062019 0.00621877 0.00623564 0.00625251 0.00626954 0.00628655 0.00630356 0.00632057
0.00633759 0.00635477 0.00637193 0.00638909 0.00640624 0.00642341 0.00644074 0.00645805 0.00647535 0.00649265
0.00650997 0.00652746 0.00654492 0.00656237 0.00657981 0.00659729 0.00661493 0.00663255 0.00665015 0.00666775
0.00668538 0.00670319 0.00672096 0.00673872 0.00675648 0.00677428 0.00679224 0.00681018 0.0068281 0.00684603
0.00686398 0.00688211 0.00690022 0.0069183 0.00693639 0.00695452 0.00697282 0.00699109 0.00700935 0.00702761
0.0070459 0.00706437 0.00708282 0.00710125 0.00711969 0.00713816 0.00715681 0.00717543 0.00719405 0.00721267
0.00723132 0.00725014 0.00726894 0.00728775 0.00730656 0.00732538 0.00734439 0.00736338 0.00738237 0.00740138
0.00742039 0.00743958 0.00745876 0.00747795 0.00749715 0.00751636 0.00753575 0.00755513 0.00757452 0.00759392
0.00761333 0.00762388 0.00763444 0.007645 0.00765556 0.00766587 0.00767496 0.00768404 0.00769313 0.00770222
0.00771132 0.0077311 0.00775089 0.0077707 0.00779051 0.00781034 0.00783035 0.00785035 0.00787037 0.0078904
0.00791044 0.00793068 0.0079509 0.00797114 0.00799138 0.00801165 0.00803212 0.00805257 0.00807303 0.0080935
0.008114 0.00813471 0.0081554 0.00817609 0.00819679 0.00821753 0.00823849 0.00825942 0.00828034 0.00830127
0.00832226 0.00834347 0.00836465 0.00838582 0.008407 0.00842824 0.0084497 0.00847115 0.00849257 0.00851401
0.0085355 0.00855722 0.00857893 0.00860061 0.00862231 0.00864407 0.00866606 0.00868803 0.00870999 0.00873198
0.00875401 0.00877626 0.0087985 0.00882075 0.00884303 0.00886533 0.00888786 0.00891038 0.00893293 0.00895549
0.00897809 0.0090009 0.00902372 0.00904656 0.00906943 0.00909233 0.00910113 0.00910992 0.00911873 0.00912753
0.00913617 0.00915054 0.00916492 0.0091793 0.0091937 0.00920811 0.00923153 0.00925496 0.00927843 0.00930192
0.00932544 0.00934918 0.00937294 0.00939673 0.00942054 0.00944439 0.00946847 0.00949256 0.00951667 0.00954082
0.009565 0.00958943 0.00961387 0.00963832 0.0096628 0.00968734 0.00971212 0.00973691 0.00976171 0.00978655
0.00981144 0.00983658 0.00986174 0.0098869 0.0099121 0.00993736 0.00996287 0.0099884 0.0100139 0.0100395
0.0100652 0.0100911 0.010117 0.0101429 0.0101689 0.0101949 0.0102212 0.0102475 0.0102738 0.0103002