/*--------------------------------*- C++ -*----------------------------------*\
  =========                 |
  \\      /  F ield         | OpenFOAM: The Open Source CFD Toolbox
   \\    /   O peration     | Website:  https://openfoam.org
    \\  /    A nd           | Version:  13
     \\/     M anipulation  |
\*---------------------------------------------------------------------------*/
FoamFile
{
    format      ascii;
    class       volScalarField;
    location    "200";
    object      epsilon;
}
// * * * * * * * * * * * * * * * * * * * * * * * * * * * * * * * * * * * * * //

dimensions      [0 2 -3 0 0 0 0];

internalField   nonuniform List<scalar> 
12225
(
285.37
271.165
258.865
245.027
233.91
224.594
218.397
214.133
214.118
215.238
218.384
221.901
229.023
233.61
242.11
246.725
257.376
253.84
52.5988
92.9048
108.379
116.198
126.213
138.033
153.772
170.8
191.81
211.49
235.579
255.736
281.111
299.409
324.572
339.506
363.424
378.861
20.5358
35.2776
45.3046
51.1784
56.1368
60.3525
65.3999
70.3498
76.9814
83.802
92.0041
99.856
108.647
117.395
125.938
135.697
142.875
154.358
16.0173
19.5436
24.2614
27.8204
30.8034
33.2066
35.5113
37.6613
39.8724
42.2865
44.6973
47.5592
50.0265
53.3807
55.7398
59.5726
61.7028
66.0087
15.0415
15.7229
17.4458
19.1634
20.7553
22.1673
23.4058
24.6055
25.6281
26.7861
27.7182
28.956
29.8308
31.1849
32.0109
33.471
34.2438
35.8674
14.7902
14.827
15.2604
15.8926
16.6083
17.3425
17.9916
18.6629
19.2064
19.8286
20.2932
20.9033
21.3161
21.933
22.3097
22.9432
23.2764
23.9862
14.7657
14.615
14.6433
14.7316
14.9477
15.2398
15.518
15.8421
16.1099
16.4269
16.6668
16.9729
17.1867
17.4859
17.6763
17.9775
18.1357
18.4789
14.7687
14.5864
14.4666
14.3808
14.3718
14.3954
14.4475
14.5462
14.6342
14.7558
14.8528
14.9813
15.0747
15.2057
15.2918
15.4265
15.497
15.6601
14.7681
14.5908
14.435
14.2962
14.1857
14.106
14.0422
14.0108
13.9865
13.9863
13.9895
14.0021
14.0152
14.0434
14.0607
14.0972
14.1137
14.1703
14.7666
14.594
14.432
14.282
14.143
14.0223
13.912
13.8205
13.7384
13.6722
13.6132
13.5671
13.5225
13.4925
13.4576
13.4411
13.4093
13.4097
14.7659
14.5945
14.4321
14.2803
14.1361
14.0033
13.8782
13.7646
13.6585
13.5634
13.4743
13.3963
13.3212
13.2579
13.1936
13.1433
13.0866
13.0485
14.7657
14.5943
14.4321
14.2798
14.1353
13.9999
13.8715
13.7518
13.6385
13.5338
13.4343
13.3433
13.2561
13.1776
13.1009
13.0337
12.9657
12.9086
14.7657
14.5941
14.432
14.2794
14.1349
13.9989
13.8698
13.7485
13.6331
13.525
13.422
13.3258
13.2339
13.1485
13.0664
12.9908
12.9174
12.8506
14.7657
14.5939
14.4318
14.279
14.1346
13.9983
13.8691
13.7472
13.6315
13.5223
13.4184
13.3203
13.227
13.139
13.055
12.9759
12.9003
12.8292
14.7657
14.5938
14.4317
14.2787
14.1342
13.9977
13.8686
13.7464
13.6307
13.5211
13.417
13.3185
13.2248
13.136
13.0516
12.9715
12.8952
12.8228
14.7657
14.5937
14.4316
14.2785
14.1339
13.9973
13.8681
13.7458
13.63
13.5202
13.4161
13.3174
13.2236
13.1346
13.05
12.9697
12.8932
12.8205
14.7657
14.5937
14.4315
14.2783
14.1337
13.997
13.8677
13.7453
13.6294
13.5195
13.4154
13.3165
13.2227
13.1336
13.0489
12.9684
12.8919
12.819
14.7657
14.5937
14.4314
14.2782
14.1335
13.9968
13.8674
13.745
13.629
13.5191
13.4148
13.3159
13.222
13.1329
13.0481
12.9676
12.8909
12.818
14.7657
14.5937
14.4314
14.2782
14.1335
13.9967
13.8673
13.7448
13.6288
13.5189
13.4146
13.3157
13.2217
13.1325
13.0477
12.9671
12.8904
12.8175
14.7657
14.5937
14.4314
14.2782
14.1336
13.9968
13.8674
13.745
13.629
13.5191
13.4148
13.3159
13.222
13.1327
13.048
12.9674
12.8907
12.8177
14.7657
14.5937
14.4315
14.2784
14.1338
13.997
13.8677
13.7453
13.6294
13.5196
13.4155
13.3166
13.2229
13.1339
13.0494
12.969
12.8927
12.82
14.7657
14.5937
14.4316
14.2785
14.1341
13.9974
13.8685
13.7464
13.6312
13.5221
13.4191
13.3215
13.2294
13.142
13.0597
12.9813
12.9076
12.8372
14.7658
14.5937
14.4318
14.2788
14.1353
14.0002
13.8743
13.7562
13.6466
13.5439
13.449
13.3599
13.2779
13.2003
13.1295
13.0616
13.0005
12.9405
14.766
14.5928
14.4328
14.2846
14.1517
14.0328
13.93
13.8391
13.7615
13.6922
13.6342
13.5811
13.5377
13.4961
13.4636
13.4298
13.4062
13.3772
14.7638
14.5939
14.4611
14.3621
14.3052
14.2824
14.2866
14.3025
14.3316
14.3662
14.411
14.4513
14.5007
14.5413
14.5929
14.6308
14.6845
14.7175
14.7565
14.6946
14.763
14.9288
15.2013
15.4868
15.779
16.0484
16.3127
16.5476
16.7826
16.9873
17.2013
17.383
17.5843
17.7479
17.944
18.0916
14.9626
15.4483
16.6088
17.7504
18.784
19.6585
20.4353
21.1007
21.7265
22.2758
22.83
23.3229
23.8524
24.3169
24.8451
25.2946
25.8363
26.2764
16.3034
21.0375
25.2027
27.9778
30.0183
31.5946
33.01
34.2901
35.5862
36.8396
38.1932
39.5106
40.9691
42.3493
43.9144
45.3646
47.068
48.5381
30.0107
47.5411
55.2903
59.1141
62.0554
64.8476
67.9651
71.3378
75.0684
79.0171
83.2644
87.6005
92.1409
96.6657
101.3
105.806
110.345
114.731
165.73
160.165
155.116
149.875
144.892
140.133
136.095
132.613
129.774
127.472
125.808
124.518
123.799
123.269
123.258
123.38
123.66
124.199
0.447098
0.48125
0.857136
1.21521
1.5948
1.99955
2.43286
2.89312
3.37299
3.86392
4.35646
4.84349
5.31829
5.77662
6.2139
6.62729
7.01286
7.36811
7.6894
7.97522
8.22408
8.43833
8.59976
8.73184
8.91298
9.06106
38.9392
39.8233
41.4294
41.9432
41.677
41.1787
39.9238
39.4464
39.5195
8.93449
40.696
43.8594
46.7334
50.289
53.7135
57.4751
61.3181
65.3767
69.5826
73.9781
78.5415
83.2947
88.2261
93.3541
98.6681
104.187
109.898
115.822
121.947
128.29
134.841
141.616
148.603
155.82
163.251
170.916
178.797
186.912
195.244
203.81
212.589
221.598
230.816
240.258
249.901
259.76
269.81
280.064
290.496
301.117
311.898
322.85
333.944
345.187
356.549
368.033
379.607
391.273
402.994
414.765
426.55
438.335
450.082
461.77
473.363
484.833
496.166
507.388
518.59
529.607
540.48
551.168
561.661
571.932
581.961
591.724
601.198
610.363
619.193
627.669
635.769
643.469
650.752
657.594
663.98
669.889
675.309
680.219
684.613
688.471
691.793
694.564
696.784
698.44
699.543
700.083
700.043
699.304
698.103
696.529
694.368
691.619
688.387
684.653
680.461
675.816
670.756
665.298
659.475
653.314
646.84
640.089
633.109
625.951
618.663
611.286
603.853
596.399
588.952
581.55
574.221
567.002
559.919
553.003
546.273
539.759
533.481
527.467
521.728
516.285
511.144
506.319
501.817
497.64
493.783
490.248
487.021
484.075
481.406
479.215
479.719
481.68
483.919
486.437
489.169
492.072
495.086
497.944
500.558
502.824
504.623
505.333
503.575
479.542
1.90621
1.13418
1.14004
1.29483
1.52623
1.81314
2.14653
2.51757
2.9167
3.33465
3.76338
4.19676
4.63042
5.06182
5.48985
5.91505
6.33975
6.76926
7.21343
7.68995
8.22901
8.88155
9.73235
10.9279
12.7043
15.4323
19.7444
20.8499
21.5204
21.8947
22.0994
22.2514
22.3753
22.5075
22.7658
22.6592
27.1009
28.453
30.16
31.9305
33.7406
35.6281
37.5715
39.586
41.6664
43.8183
46.0411
48.338
50.7091
53.1569
55.6816
58.2855
60.9684
63.7326
66.5776
69.5054
72.5152
75.6089
78.7853
82.046
85.3894
88.817
92.3268
95.9197
99.5935
103.349
107.182
111.095
115.083
119.147
123.282
127.489
131.762
136.101
140.5
144.958
149.47
154.032
158.64
163.291
167.976
172.692
177.432
182.19
186.958
191.729
196.492
201.242
205.969
210.666
215.327
219.953
224.554
229.156
233.816
238.443
243.008
247.504
251.923
256.257
260.497
264.635
268.662
272.57
276.349
279.991
283.487
286.83
290.011
293.022
295.855
298.503
300.959
303.218
305.272
307.118
308.75
310.165
311.358
312.327
313.07
313.583
313.851
313.868
313.698
313.338
312.743
311.912
310.871
309.624
308.181
306.548
304.738
302.757
300.619
298.334
295.915
293.375
290.734
288.008
285.216
282.374
279.495
276.594
273.685
270.782
267.898
265.048
262.244
259.498
256.822
254.228
251.727
249.329
247.043
244.876
242.838
240.931
239.163
237.536
236.052
234.713
233.519
232.467
231.567
230.898
230.911
231.266
231.772
232.412
233.136
233.93
234.75
235.503
236.165
236.7
237.104
237.531
237.569
236.416
3.79699
1.91671
1.70323
1.75716
1.92048
2.15606
2.44759
2.78404
3.15552
3.55293
3.96853
4.39652
4.83299
5.27585
5.72523
6.18268
6.65159
7.13799
7.65164
8.20789
8.82968
9.54925
10.4071
11.4426
12.6748
14.0772
15.5091
16.4381
17.2035
17.9086
18.6118
19.3542
20.1642
21.0744
22.1392
23.4009
25.056
26.4182
27.8372
29.3097
30.8349
32.415
34.0486
35.7376
37.4821
39.2836
41.1426
43.06
45.0366
47.0732
49.1705
51.3291
53.5496
55.8325
58.1783
60.5874
63.06
65.5964
68.1965
70.8605
73.5881
76.3792
79.2333
82.1501
85.1287
88.1686
91.2687
94.4279
97.6451
100.919
104.247
107.629
111.062
114.545
118.074
121.647
125.262
128.915
132.604
136.324
140.073
143.846
147.64
151.449
155.27
159.097
162.926
166.753
170.575
174.387
178.189
181.982
185.768
189.551
193.327
197.069
200.765
204.409
207.996
211.517
214.966
218.336
221.62
224.811
227.903
230.887
233.758
236.508
239.131
241.619
243.967
246.169
248.218
250.11
251.839
253.402
254.793
256.01
257.049
257.908
258.585
259.078
259.366
259.458
259.414
259.186
258.778
258.188
257.427
256.501
255.416
254.177
252.793
251.272
249.622
247.852
245.973
243.996
241.934
239.801
237.608
235.369
233.096
230.799
228.49
226.18
223.881
221.602
219.355
217.149
214.993
212.898
210.87
208.918
207.05
205.272
203.59
202.008
200.53
199.161
197.901
196.752
195.715
194.79
193.98
193.32
192.937
192.738
192.656
192.657
192.694
192.786
192.864
192.849
192.778
192.653
192.477
192.416
192.49
193.114
5.78057
2.75388
2.32185
2.29348
2.41397
2.62053
2.88928
3.20735
3.56517
3.95464
4.36891
4.80266
5.25236
5.71631
6.19398
6.68643
7.19603
7.72658
8.28348
8.8743
9.509
10.1996
10.9583
11.7932
12.7011
13.6589
14.6175
15.5175
16.402
17.3006
18.2328
19.2116
20.2463
21.344
22.5168
23.7864
25.1305
26.469
27.8421
29.2574
30.7211
32.2346
33.7988
35.4147
37.083
38.8047
40.5804
42.4111
44.2975
46.2402
48.24
50.2974
52.4129
54.5871
56.8205
59.1135
61.4664
63.8796
66.3532
68.8874
71.4822
74.1374
76.853
79.6285
82.4636
85.3577
88.3101
91.3199
94.3862
97.5078
100.683
103.912
107.19
110.518
113.893
117.313
120.775
124.277
127.816
131.388
134.992
138.623
142.277
145.952
149.644
153.348
157.061
160.78
164.502
168.223
171.941
175.654
179.36
183.056
186.731
190.373
193.974
197.527
201.025
204.463
207.833
211.129
214.343
217.469
220.5
223.429
226.249
228.954
231.536
233.989
236.306
238.483
240.513
242.39
244.11
245.668
247.06
248.283
249.332
250.207
250.904
251.424
251.747
251.876
251.869
251.677
251.312
250.774
250.07
249.204
248.182
247.011
245.697
244.247
242.67
240.975
239.171
237.27
235.283
233.222
231.098
228.924
226.71
224.468
222.208
219.942
217.679
215.43
213.204
211.011
208.859
206.757
204.712
202.733
200.825
198.995
197.248
195.589
194.02
192.547
191.168
189.886
188.699
187.606
186.608
185.719
184.983
184.37
183.847
183.382
182.932
182.502
182.045
181.541
180.992
180.41
179.818
179.37
179.172
179.629
7.69792
3.58604
2.93803
2.83328
2.91291
3.09432
3.34492
3.64894
3.99633
4.37946
4.79214
5.22951
5.68812
6.16593
6.66214
7.17707
7.71198
8.26884
8.85034
9.45984
10.1014
10.7795
11.4989
12.2629
13.0716
13.9191
14.7951
15.692
16.6163
17.5752
18.5737
19.6149
20.7016
21.8357
23.021
24.2585
25.5461
26.8698
28.2362
29.6497
31.1114
32.6227
34.1844
35.7978
37.4638
39.1834
40.9576
42.7873
44.6735
46.6173
48.6197
50.6808
52.8015
54.9825
57.2245
59.528
61.8937
64.3221
66.8137
69.3687
71.9876
74.6703
77.417
80.2277
83.1021
86.0399
89.0407
92.1039
95.2286
98.4139
101.659
104.962
108.321
111.736
115.204
118.723
122.29
125.904
129.561
133.258
136.993
140.762
144.562
148.389
152.239
156.109
159.994
163.892
167.797
171.707
175.616
179.52
183.414
187.291
191.142
194.96
198.737
202.467
206.142
209.755
213.3
216.768
220.153
223.448
226.644
229.735
232.714
235.572
238.304
240.901
243.359
245.669
247.826
249.824
251.658
253.322
254.813
256.126
257.258
258.207
258.97
259.546
259.924
260.093
260.109
259.932
259.574
259.036
258.324
257.441
256.393
255.186
253.827
252.324
250.684
248.917
247.034
245.044
242.959
240.791
238.552
236.252
233.905
231.521
229.111
226.686
224.257
221.834
219.427
217.044
214.696
212.389
210.133
207.933
205.798
203.732
201.742
199.83
198.002
196.258
194.6
193.028
191.542
190.139
188.818
187.584
186.452
185.411
184.441
183.523
182.624
181.735
180.831
179.899
178.94
177.969
177.02
176.224
175.661
175.646
9.49073
4.37997
3.52488
3.34657
3.38649
3.54359
3.77664
4.06661
4.40245
4.77654
5.18306
5.61748
6.07647
6.55786
7.06051
7.58428
8.12974
8.69806
9.29084
9.91
10.5577
11.2364
11.9485
12.6962
13.4811
14.3031
15.1614
16.0557
16.9878
17.96
18.9741
20.0312
21.1324
22.2786
23.4715
24.7119
25.9993
27.3322
28.712
30.1406
31.6192
33.1492
34.7318
36.3681
38.0595
39.8071
41.6121
43.4756
45.3986
47.3822
49.4274
51.5356
53.708
55.9457
58.2496
60.6207
63.06
65.5683
68.1464
70.795
73.5146
76.3058
79.1689
82.1041
85.1115
88.1911
91.3425
94.5655
97.8593
101.223
104.656
108.157
111.724
115.356
119.051
122.806
126.62
130.489
134.41
138.381
142.398
146.458
150.556
154.689
158.853
163.043
167.254
171.482
175.723
179.97
184.218
188.461
192.691
196.901
201.085
205.234
209.34
213.396
217.395
221.328
225.188
228.966
232.656
236.248
239.734
243.108
246.36
249.482
252.468
255.309
257.998
260.528
262.892
265.085
267.099
268.93
270.573
272.022
273.275
274.329
275.181
275.83
276.27
276.481
276.514
276.341
275.97
275.405
274.648
273.705
272.581
271.283
269.816
268.19
266.413
264.494
262.444
260.274
257.995
255.62
253.16
250.629
248.037
245.398
242.722
240.022
237.308
234.591
231.882
229.19
226.523
223.892
221.303
218.764
216.282
213.863
211.512
209.233
207.03
204.905
202.86
200.894
199.008
197.199
195.465
193.807
192.23
190.727
189.286
187.891
186.523
185.17
183.816
182.452
181.082
179.723
178.413
177.261
176.316
175.752
11.1136
5.11125
4.06221
3.81284
3.81381
3.94634
4.16109
4.43568
4.75781
5.11957
5.51531
5.94077
6.39277
6.86916
7.36871
7.891
8.43628
9.00537
9.59947
10.2201
10.8688
11.5475
12.2581
13.0024
13.7822
14.5989
15.4536
16.3475
17.2819
18.2582
19.2777
20.3414
21.4502
22.605
23.807
25.0573
26.3564
27.705
29.1042
30.5553
32.0597
33.6188
35.234
36.9067
38.6385
40.4308
42.285
44.2027
46.1854
48.2344
50.3513
52.5378
54.7952
57.1251
59.5289
62.008
64.5637
67.1972
69.9098
72.7024
75.576
78.5315
81.5695
84.6907
87.8952
91.1834
94.5553
98.0105
101.549
105.169
108.871
112.653
116.513
120.45
124.462
128.546
132.701
136.922
141.206
145.551
149.951
154.404
158.905
163.449
168.03
172.645
177.287
181.951
186.63
191.319
196.01
200.695
205.368
210.019
214.64
219.224
223.762
228.245
232.665
237.014
241.282
245.46
249.54
253.513
257.369
261.101
264.698
268.153
271.456
274.6
277.577
280.378
282.997
285.425
287.658
289.688
291.51
293.12
294.512
295.685
296.635
297.361
297.859
298.107
298.149
297.966
297.564
296.946
296.116
295.08
293.842
292.41
290.79
288.991
287.021
284.892
282.613
280.198
277.656
275.003
272.249
269.409
266.494
263.519
260.495
257.435
254.35
251.252
248.152
245.06
241.986
238.938
235.925
232.955
230.034
227.169
224.366
221.628
218.961
216.367
213.847
211.403
209.034
206.74
204.519
202.371
200.295
198.288
196.343
194.448
192.591
190.761
188.947
187.146
185.362
183.614
181.937
180.421
179.085
178.009
12.5346
5.76242
4.53661
4.21636
4.18168
4.28886
4.48427
4.74209
5.04863
5.39557
5.77726
6.18965
6.62982
7.09573
7.58618
8.10071
8.63945
9.20307
9.7926
10.4094
11.0549
11.7306
12.4385
13.1801
13.9574
14.7719
15.6253
16.519
17.4543
18.4328
19.4556
20.5239
21.6389
22.8018
24.0138
25.2762
26.5903
27.9574
29.3788
30.8562
32.391
33.9849
35.6396
37.3569
39.1386
40.9865
42.9025
44.8885
46.9464
49.0782
51.2857
53.5712
55.9363
58.3833
60.9138
63.5298
66.2331
69.0254
71.9083
74.8833
77.9518
81.1149
84.3739
87.7294
91.1823
94.7329
98.3814
102.128
105.972
109.913
113.95
118.081
122.306
126.622
131.027
135.518
140.092
144.746
149.476
154.277
159.147
164.078
169.068
174.109
179.195
184.322
189.481
194.667
199.871
205.087
210.305
215.517
220.714
225.888
231.028
236.126
241.172
246.156
251.069
255.902
260.643
265.284
269.814
274.224
278.503
282.641
286.63
290.459
294.119
297.601
300.896
303.996
306.893
309.578
312.045
314.287
316.299
318.074
319.609
320.899
321.942
322.737
323.28
323.55
323.586
323.372
322.915
322.218
321.285
320.122
318.735
317.13
315.315
313.298
311.09
308.701
306.143
303.427
300.568
297.577
294.469
291.258
287.957
284.58
281.141
277.653
274.127
270.578
267.015
263.45
259.893
256.353
252.84
249.361
245.925
242.537
239.204
235.932
232.725
229.586
226.518
223.524
220.604
217.758
214.987
212.289
209.665
207.112
204.628
202.204
199.833
197.507
195.221
192.971
190.765
188.62
186.567
184.681
182.953
181.407
13.7336
6.32101
4.93827
4.55152
4.48228
4.56436
4.73985
4.98
5.26982
5.60051
5.96637
6.36352
6.78923
7.24169
7.71979
8.22308
8.75171
9.30633
9.88793
10.4978
11.1374
11.8076
12.5103
13.2474
14.0206
14.8318
15.6826
16.5746
17.5094
18.4886
19.5135
20.5856
21.7064
22.8773
24.0996
25.3748
26.7051
28.0924
29.5383
31.0447
32.6136
34.2471
35.9473
37.7162
39.5562
41.4694
43.4583
45.5252
47.6727
49.903
52.2189
54.6227
57.1169
59.7042
62.3868
65.1673
68.0479
71.0309
74.1184
77.3124
80.6147
84.027
87.5507
91.1871
94.937
98.8012
102.78
106.874
111.082
115.404
119.838
124.385
129.04
133.803
138.671
143.64
148.708
153.869
159.119
164.455
169.869
175.356
180.911
186.526
192.195
197.909
203.661
209.443
215.245
221.059
226.875
232.683
238.473
244.235
249.957
255.629
261.241
266.782
272.24
277.605
282.866
288.011
293.029
297.91
302.643
307.217
311.62
315.844
319.878
323.711
327.335
330.74
333.918
336.86
339.559
342.008
344.2
346.13
347.792
349.184
350.302
351.144
351.706
351.974
351.977
351.704
351.161
350.351
349.28
347.954
346.378
344.56
342.508
340.232
337.741
335.046
332.16
329.097
325.869
322.491
318.977
315.341
311.6
307.766
303.854
299.879
295.854
291.792
287.705
283.605
279.503
275.408
271.33
267.279
263.262
259.286
255.36
251.488
247.677
243.93
240.252
236.647
233.117
229.663
226.287
222.989
219.772
216.635
213.578
210.596
207.687
204.846
202.071
199.36
196.721
194.171
191.736
189.474
187.355
185.375
14.7013
6.78111
5.26407
4.81702
4.71481
4.77232
4.92778
5.14992
5.4226
5.73652
6.08592
6.467
6.87723
7.31501
7.77941
8.26951
8.78578
9.32906
9.90042
10.5013
11.1334
11.797
12.4937
13.2254
13.9938
14.8008
15.648
16.5373
17.4704
18.4491
19.4751
20.55
21.6757
22.854
24.0867
25.3757
26.725
28.1352
29.6085
31.148
32.7562
34.4355
36.1885
38.0179
39.9264
41.9167
43.9919
46.1548
48.4085
50.7561
53.2006
55.7453
58.3932
61.1475
64.0111
66.9873
70.0787
73.2883
76.6188
80.0725
83.6519
87.3589
91.1955
95.163
99.2629
103.496
107.862
112.363
116.996
121.763
126.661
131.688
136.844
142.124
147.525
153.044
158.677
164.419
170.263
176.205
182.237
188.353
194.545
200.805
207.125
213.495
219.907
226.349
232.813
239.287
245.759
252.22
258.656
265.056
271.407
277.698
283.917
290.05
296.087
302.013
307.818
313.489
319.014
324.38
329.576
334.59
339.411
344.028
348.429
352.605
356.546
360.241
363.682
366.86
369.768
372.397
374.742
376.796
378.555
380.014
381.171
382.024
382.568
382.798
382.729
382.356
381.685
380.72
379.469
377.936
376.129
374.055
371.722
369.141
366.322
363.277
360.019
356.561
352.919
349.107
345.139
341.032
336.801
332.461
328.028
323.516
318.941
314.315
309.653
304.965
300.264
295.561
290.866
286.189
281.537
276.921
272.347
267.822
263.354
258.948
254.609
250.343
246.154
242.045
238.02
234.081
230.233
226.478
222.818
219.253
215.784
212.41
209.13
205.946
202.865
199.902
197.078
194.437
191.936
189.554
15.4385
7.14202
5.51514
5.01533
4.88252
4.91657
5.05241
5.25674
5.51243
5.80975
6.14284
6.50789
6.90237
7.32524
7.77636
8.25487
8.76061
9.29401
9.85593
10.4474
11.0694
11.7232
12.4107
13.134
13.895
14.6955
15.5376
16.4232
17.3543
18.333
19.3614
20.4416
21.5757
22.7662
24.015
25.3242
26.6958
28.1328
29.6392
31.2189
32.8749
34.6102
36.428
38.3315
40.3239
42.4086
44.5893
46.8695
49.2529
51.7433
54.3445
57.0603
59.8945
62.851
65.9335
69.1455
72.4908
75.9725
79.594
83.3583
87.268
91.3256
95.5332
99.8926
104.405
109.072
113.893
118.868
123.998
129.281
134.714
140.297
146.027
151.899
157.909
164.054
170.327
176.723
183.235
189.855
196.577
203.391
210.288
217.258
224.292
231.379
238.508
245.666
252.842
260.023
267.197
274.351
281.47
288.541
295.551
302.485
309.33
316.072
322.698
329.193
335.544
341.738
347.762
353.602
359.246
364.682
369.896
374.879
379.618
384.103
388.323
392.269
395.931
399.301
402.371
405.133
407.58
409.708
411.511
412.986
414.13
414.94
415.414
415.552
415.36
414.832
413.979
412.809
411.326
409.537
407.448
405.069
402.408
399.475
396.282
392.841
389.165
385.269
381.168
376.877
372.413
367.791
363.027
358.139
353.141
348.05
342.882
337.65
332.369
327.051
321.71
316.356
311
305.654
300.326
295.026
289.763
284.544
279.378
274.272
269.232
264.266
259.38
254.579
249.87
245.258
240.749
236.348
232.061
227.893
223.846
219.923
216.126
212.459
208.929
205.547
202.329
199.312
196.437
193.683
15.9566
7.40766
5.69596
5.15186
4.99152
5.00385
5.12101
5.30821
5.54754
5.82883
6.14666
6.49828
6.88005
7.2903
7.72778
8.19153
8.6828
9.20242
9.75131
10.3306
10.9416
11.586
12.2657
12.9822
13.7377
14.5341
15.3737
16.2587
17.1914
18.1743
19.21
20.3008
21.4495
22.6588
23.9319
25.2711
26.6785
28.1569
29.71
31.3442
33.0634
34.8723
36.7752
38.7754
40.8768
43.0835
45.3998
47.83
50.3788
53.0505
55.8497
58.7811
61.8491
65.0582
68.4129
71.9174
75.5759
79.3923
83.3701
87.5129
91.8236
96.3049
100.959
105.788
110.792
115.973
121.331
126.866
132.576
138.459
144.514
150.736
157.124
163.671
170.372
177.223
184.215
191.342
198.595
205.965
213.443
221.019
228.682
236.42
244.221
252.072
259.962
267.875
275.797
283.716
291.616
299.481
307.298
315.049
322.72
330.296
337.761
345.1
352.297
359.339
366.209
372.895
379.38
385.653
391.7
397.507
403.062
408.354
413.37
418.1
422.535
426.663
430.476
433.966
437.125
439.946
442.422
444.55
446.324
447.74
448.798
449.494
449.829
449.804
449.421
448.669
447.573
446.134
444.36
442.256
439.83
437.091
434.049
430.714
427.098
423.213
419.074
414.695
410.093
405.283
400.282
395.106
389.772
384.298
378.7
372.995
367.198
361.326
355.392
349.412
343.396
337.359
331.312
325.265
319.229
313.214
307.231
301.288
295.394
289.559
283.79
278.097
272.488
266.97
261.553
256.244
251.053
245.987
241.057
236.27
231.632
227.151
222.829
218.673
214.688
210.885
207.275
203.886
200.651
197.554
16.2764
7.58806
5.81412
5.23431
5.04977
5.04321
5.14267
5.31402
5.53971
5.80824
6.11297
6.44915
6.81493
7.20949
7.63238
8.08385
8.56399
9.0734
9.61302
10.1841
10.788
11.4266
12.1017
12.8154
13.5699
14.3675
15.2107
16.102
17.0444
18.0407
19.0948
20.2085
21.385
22.6273
23.9383
25.3188
26.7753
28.3137
29.9392
31.6567
33.471
35.3871
37.4106
39.5462
41.7984
44.1724
46.6733
49.3063
52.0768
54.9902
58.0518
61.2668
64.6405
68.1781
71.8845
75.7645
79.8227
84.0633
88.4901
93.1067
97.9162
102.921
108.123
113.524
119.124
124.924
130.924
137.121
143.513
150.099
156.874
163.835
170.975
178.289
185.769
193.409
201.2
209.132
217.196
225.38
233.673
242.064
250.538
259.084
267.685
276.329
284.999
293.681
302.358
311.014
319.633
328.198
336.692
345.098
353.399
361.578
369.618
377.504
385.218
392.744
400.068
407.173
414.046
420.672
427.037
433.128
438.933
444.44
449.638
454.516
459.065
463.274
467.137
470.645
473.791
476.569
478.974
481.001
482.648
483.91
484.788
485.28
485.386
485.117
484.448
483.399
481.983
480.203
478.068
475.583
472.757
469.599
466.119
462.328
458.237
453.861
449.214
444.31
439.167
433.799
428.225
422.461
416.526
410.435
404.208
397.86
391.409
384.871
378.261
371.593
364.882
358.14
351.379
344.61
337.847
331.099
324.376
317.691
311.052
304.471
297.957
291.521
285.173
278.924
272.785
266.768
260.883
255.143
249.561
244.148
238.915
233.87
229.022
224.376
219.938
215.717
211.721
207.969
204.39
200.98
16.3922
7.683
5.87418
5.2693
5.06454
5.04281
5.12931
5.28797
5.49894
5.75212
6.04207
6.36549
6.72014
7.10466
7.51852
7.96177
8.43483
8.9385
9.47383
10.0422
10.6452
11.2849
11.9635
12.6834
13.4479
14.2588
15.119
16.0314
16.9994
18.026
19.1137
20.2648
21.4851
22.7794
24.1529
25.6106
27.1577
28.8
30.5433
32.3932
34.3556
36.4369
38.6435
40.9808
43.4548
46.0719
48.8385
51.7609
54.8454
58.0979
61.5245
65.131
68.9231
72.9063
77.0858
81.4667
86.0533
90.85
95.8602
101.087
106.533
112.199
118.088
124.199
130.532
137.085
143.857
150.845
158.045
165.453
173.063
180.869
188.864
197.039
205.386
213.895
222.555
231.355
240.283
249.326
258.471
267.702
277.005
286.365
295.766
305.191
314.622
324.044
333.437
342.785
352.07
361.272
370.374
379.358
388.205
396.897
405.416
413.745
421.868
429.767
437.426
444.83
451.964
458.814
465.366
471.608
477.527
483.113
488.354
493.241
497.765
501.918
505.692
509.082
512.081
514.684
516.888
518.689
520.087
521.076
521.659
521.835
521.616
520.98
519.934
518.497
516.675
514.473
511.899
508.96
505.665
502.024
498.048
493.745
489.13
484.215
479.016
473.548
467.826
461.868
455.691
449.312
442.749
436.019
429.142
422.133
415.01
407.79
400.489
393.122
385.702
378.244
370.76
363.262
355.762
348.272
340.804
333.37
325.981
318.649
311.385
304.202
297.113
290.131
283.269
276.541
269.963
263.55
257.318
251.282
245.456
239.853
234.484
229.356
224.474
219.846
215.475
211.377
207.476
203.787
16.3629
7.70081
5.88308
5.26563
5.04874
5.01514
5.08716
5.23199
5.43152
5.67533
5.95727
6.27381
6.62278
7.00306
7.41427
7.85663
8.3309
8.83844
9.38035
9.95798
10.5734
11.2289
11.927
12.6702
13.4607
14.3002
15.194
16.1464
17.1618
18.2447
19.4005
20.6337
21.9494
23.3535
24.852
26.4515
28.1584
29.9793
31.9213
33.9911
36.1961
38.5436
41.0406
43.6944
46.5126
49.5029
52.6734
56.0316
59.5842
63.3374
67.2973
71.4696
75.8599
80.4733
85.3146
90.3879
95.6969
101.245
107.033
113.065
119.339
125.857
132.617
139.618
146.857
154.33
162.034
169.962
178.109
186.468
195.03
203.787
212.729
221.846
231.126
240.558
250.127
259.822
269.627
279.528
289.509
299.554
309.646
319.768
329.903
340.032
350.137
360.2
370.201
380.122
389.944
399.648
409.214
418.625
427.859
436.9
445.73
454.329
462.682
470.772
478.582
486.099
493.306
500.191
506.74
512.942
518.786
524.262
529.359
534.07
538.387
542.304
545.815
548.914
551.598
553.863
555.708
557.131
558.133
558.708
558.861
558.605
557.913
556.797
555.273
553.347
551.024
548.311
545.217
541.748
537.915
533.727
529.194
524.328
519.139
513.643
507.853
501.786
495.457
488.883
482.08
475.067
467.86
460.479
452.94
445.261
437.46
429.554
421.559
413.491
405.363
397.189
388.984
380.759
372.526
364.3
356.092
347.915
339.782
331.707
323.701
315.78
307.959
300.253
292.678
285.252
277.993
270.919
264.05
257.404
251.001
244.856
238.983
233.39
228.083
223.068
218.344
213.925
209.728
205.796
16.2536
7.68334
5.86406
5.23563
5.00534
4.96094
5.02568
5.16496
5.36033
5.6017
5.88344
6.20265
6.55677
6.94479
7.36666
7.82288
8.31427
8.8417
9.40496
10.0078
10.6533
11.3448
12.0857
12.8801
13.7325
14.6473
15.6291
16.6832
17.8155
19.0322
20.3399
21.7453
23.2554
24.8775
26.6194
28.4895
30.4959
32.6472
34.9517
37.4179
40.0539
42.8676
45.8661
49.0592
52.4563
56.0665
59.9003
63.9682
68.2742
72.8228
77.6181
82.6645
87.9655
93.5243
99.3432
105.424
111.767
118.373
125.241
132.368
139.753
147.391
155.279
163.41
171.779
180.379
189.202
198.239
207.48
216.917
226.537
236.329
246.282
256.381
266.614
276.966
287.422
297.968
308.587
319.264
329.98
340.72
351.465
362.198
372.9
383.552
394.137
404.634
415.026
425.293
435.416
445.376
455.154
464.731
474.09
483.211
492.078
500.673
508.979
516.981
524.665
532.016
539.02
545.665
551.94
557.834
563.337
568.442
573.141
577.425
581.291
584.734
587.748
590.333
592.485
594.201
595.487
596.334
596.764
596.742
596.32
595.427
594.122
592.4
590.266
587.727
584.789
581.461
577.749
573.662
569.208
564.398
559.242
553.75
547.933
541.806
535.383
528.678
521.708
514.488
507.035
499.366
491.499
483.45
475.238
466.881
458.395
449.798
441.107
432.336
423.5
414.614
405.691
396.744
387.785
378.828
369.887
360.977
352.11
343.302
334.567
325.921
317.382
308.968
300.697
292.59
284.668
276.955
269.472
262.24
255.284
248.623
242.26
236.217
230.5
225.116
220.063
215.352
210.897
206.783
15.9961
7.61131
5.80767
5.17986
4.95068
4.90866
4.97794
5.12445
5.32957
5.58345
5.88032
6.21613
6.58929
7.00045
7.45046
7.94068
8.47308
9.05034
9.6757
10.3523
11.0843
11.8764
12.7339
13.6628
14.6695
15.7607
16.9435
18.2256
19.6153
21.1213
22.7529
24.5196
26.4313
28.4982
30.7308
33.1394
35.7347
38.5268
41.526
44.7419
48.1834
51.8594
55.778
59.9479
64.3772
69.0741
74.0461
79.303
84.8459
90.6736
96.785
103.179
109.855
116.808
124.038
131.538
139.306
147.334
155.616
164.145
172.914
181.914
191.135
200.569
210.204
220.03
230.036
240.211
250.541
261.015
271.621
282.343
293.17
304.087
315.08
326.133
337.233
348.363
359.509
370.653
381.78
392.874
403.916
414.891
425.78
436.566
447.232
457.76
468.133
478.332
488.339
498.138
507.711
517.041
526.109
534.9
543.398
551.587
559.451
566.979
574.155
580.969
587.408
593.46
599.117
604.37
609.213
613.638
617.639
621.211
624.352
627.059
629.329
631.163
632.559
633.511
634.045
634.122
633.818
633.04
631.838
630.215
628.18
625.737
622.892
619.65
616.02
612.007
607.618
602.863
597.747
592.282
586.476
580.339
573.883
567.119
560.061
552.725
545.124
537.273
529.188
520.886
512.383
503.695
494.841
485.837
476.701
467.449
458.099
448.664
439.16
429.601
420
410.371
400.726
391.08
381.447
371.844
362.286
352.786
343.363
334.036
324.822
315.743
306.82
298.076
289.528
281.203
273.132
265.342
257.863
250.721
243.949
237.538
231.493
225.819
220.51
215.578
210.925
206.68
15.7014
7.50023
5.73437
5.12701
4.91525
4.89117
4.97975
5.14485
5.37195
5.65285
5.98326
6.36179
6.78778
7.26226
7.7874
8.36631
9.00299
9.70232
10.4699
11.3117
12.2345
13.2463
14.3559
15.5728
16.9071
18.3696
19.9718
21.726
23.6448
25.7413
28.0286
30.52
33.2289
36.1686
39.3515
42.7896
46.4939
50.4751
54.7425
59.3035
64.1643
69.33
74.8054
80.5937
86.6963
93.1157
99.8526
106.909
114.27
121.925
129.863
138.074
146.547
155.273
164.239
173.433
182.845
192.463
202.274
212.266
222.428
232.748
243.213
253.811
264.531
275.36
286.287
297.3
308.386
319.534
330.732
341.968
353.229
364.503
375.777
387.04
398.277
409.476
420.624
431.707
442.711
453.621
464.423
475.103
485.646
496.036
506.258
516.298
526.14
535.768
545.167
554.321
563.215
571.834
580.163
588.188
595.893
603.266
610.293
616.964
623.268
629.194
634.732
639.872
644.607
648.932
652.843
656.333
659.396
662.03
664.238
666.017
667.36
668.279
668.773
668.81
668.493
667.703
666.5
664.89
662.874
660.457
657.646
654.446