/*--------------------------------*- C++ -*----------------------------------*\
  =========                 |
  \\      /  F ield         | OpenFOAM: The Open Source CFD Toolbox
   \\    /   O peration     | Website:  https://openfoam.org
    \\  /    A nd           | Version:  13
     \\/     M anipulation  |
\*---------------------------------------------------------------------------*/
FoamFile
{
    format      ascii;
    class       volScalarField;
    location    "200";
    object      k;
}
// * * * * * * * * * * * * * * * * * * * * * * * * * * * * * * * * * * * * * //

dimensions      [0 2 -2 0 0 0 0];

internalField   nonuniform List<scalar> 
12225
(
0.362619
0.344575
0.328954
0.311361
0.297243
0.285394
0.277528
0.272109
0.272089
0.273524
0.277489
0.282058
0.29101
0.296679
0.3079
0.313354
0.32769
0.335652
0.440568
0.472646
0.465952
0.45247
0.454239
0.461521
0.477248
0.500502
0.525994
0.553225
0.581609
0.606757
0.634274
0.654216
0.680007
0.693498
0.717714
0.729625
0.390979
0.420429
0.423241
0.419754
0.414455
0.410364
0.410517
0.412322
0.416673
0.423264
0.43246
0.441262
0.452617
0.462449
0.474071
0.484695
0.494615
0.507261
0.377675
0.387525
0.392628
0.392722
0.391724
0.389442
0.387206
0.385593
0.384354
0.38429
0.384707
0.385698
0.387512
0.389637
0.392055
0.395346
0.397597
0.402084
0.374599
0.376209
0.378832
0.37931
0.378986
0.378031
0.376372
0.374645
0.372933
0.371368
0.370161
0.369001
0.368259
0.367655
0.367283
0.36715
0.367156
0.367507
0.373819
0.372741
0.372777
0.372598
0.372115
0.371236
0.37003
0.368598
0.367118
0.365539
0.364103
0.362642
0.361338
0.360108
0.358973
0.357999
0.357004
0.35635
0.373784
0.371743
0.370421
0.369359
0.36837
0.367302
0.366149
0.364857
0.36354
0.362133
0.360766
0.35938
0.358045
0.356757
0.355499
0.354349
0.353175
0.35219
0.373821
0.371558
0.369641
0.367996
0.366545
0.36518
0.363877
0.362556
0.361258
0.359937
0.358639
0.357347
0.356079
0.354848
0.353634
0.352491
0.351343
0.350304
0.373832
0.371552
0.369449
0.367529
0.365788
0.364176
0.362681
0.36125
0.359883
0.358553
0.357262
0.356007
0.354782
0.353599
0.352439
0.351335
0.350242
0.349225
0.373831
0.37156
0.369418
0.367405
0.365531
0.363778
0.362143
0.360602
0.359146
0.357759
0.356434
0.355165
0.353942
0.352771
0.351636
0.350554
0.349497
0.348504
0.373829
0.37156
0.369413
0.367378
0.365458
0.363646
0.361939
0.360328
0.358806
0.357363
0.355993
0.35469
0.353446
0.352261
0.351123
0.350041
0.348995
0.348009
0.373828
0.371558
0.369409
0.36737
0.365439
0.363609
0.361876
0.360234
0.358679
0.357204
0.355804
0.354474
0.353208
0.352004
0.350854
0.349761
0.348711
0.347719
0.373827
0.371556
0.369405
0.367365
0.36543
0.363593
0.361851
0.360197
0.358626
0.357134
0.355716
0.354369
0.353087
0.351867
0.350704
0.349599
0.348541
0.347539
0.373827
0.371555
0.369401
0.367359
0.365422
0.363583
0.361837
0.360177
0.3586
0.357101
0.355674
0.354317
0.353025
0.351795
0.350622
0.349507
0.348441
0.347429
0.373826
0.371553
0.369398
0.367355
0.365416
0.363575
0.361826
0.360164
0.358584
0.357081
0.355651
0.354289
0.352993
0.351758
0.35058
0.349459
0.348388
0.347369
0.373826
0.371552
0.369396
0.367351
0.36541
0.363567
0.361817
0.360153
0.358572
0.357067
0.355634
0.354271
0.352972
0.351734
0.350554
0.34943
0.348357
0.347334
0.373825
0.371551
0.369394
0.367348
0.365406
0.363562
0.36181
0.360145
0.358562
0.357055
0.355621
0.354256
0.352955
0.351716
0.350535
0.349408
0.348334
0.347309
0.373825
0.371551
0.369393
0.367346
0.365403
0.363558
0.361805
0.360139
0.358555
0.357047
0.355612
0.354246
0.352944
0.351703
0.350521
0.349393
0.348317
0.347291
0.373825
0.37155
0.369393
0.367346
0.365402
0.363557
0.361804
0.360137
0.358552
0.357044
0.355608
0.354241
0.352938
0.351697
0.350514
0.349385
0.348309
0.347281
0.373825
0.371551
0.369393
0.367347
0.365404
0.363559
0.361806
0.36014
0.358555
0.357047
0.355611
0.354244
0.352942
0.351701
0.350518
0.349389
0.348313
0.347285
0.373825
0.371551
0.369395
0.367349
0.365407
0.363563
0.361811
0.360146
0.358562
0.357055
0.355622
0.354256
0.352956
0.351716
0.350535
0.349408
0.348334
0.347309
0.373826
0.371552
0.369397
0.367352
0.365412
0.363571
0.361822
0.360162
0.358584
0.357084
0.355658
0.354301
0.353009
0.351779
0.350607
0.349489
0.348424
0.347406
0.373826
0.371554
0.369399
0.36736
0.365429
0.363604
0.361878
0.360244
0.358697
0.357229
0.355835
0.354508
0.353245
0.352039
0.35089
0.349789
0.348741
0.347733
0.373828
0.371551
0.369412
0.367419
0.365562
0.363831
0.362209
0.360679
0.359226
0.35784
0.356512
0.355235
0.354008
0.352824
0.351686
0.350587
0.349534
0.348513
0.373823
0.371556
0.369609
0.367917
0.366386
0.364966
0.363594
0.362246
0.360906
0.359577
0.358261
0.356963
0.355694
0.354452
0.353252
0.352085
0.35097
0.349885
0.373794
0.372009
0.371176
0.370428
0.36959
0.368605
0.367387
0.366004
0.364519
0.362992
0.361459
0.359959
0.358516
0.357128
0.35583
0.35459
0.353458
0.35237
0.374416
0.375729
0.378185
0.378517
0.377996
0.376678
0.374644
0.372466
0.370321
0.368296
0.366462
0.364868
0.363484
0.362293
0.361354
0.360547
0.360005
0.359502
0.379493
0.395365
0.399865
0.398239
0.394209
0.389184
0.385129
0.381884
0.379608
0.378158
0.377698
0.377911
0.378552
0.379757
0.381464
0.383404
0.385769
0.388045
0.408479
0.429537
0.424653
0.413527
0.404682
0.399928
0.400507
0.402652
0.407513
0.414329
0.422124
0.430832
0.439738
0.449008
0.458046
0.467229
0.475939
0.484749
0.365929
0.353621
0.342468
0.330897
0.319894
0.309387
0.300474
0.29278
0.286517
0.281434
0.27776
0.274913
0.273325
0.272155
0.27213
0.272399
0.273019
0.274208
0.00152916
0.00754087
0.0134467
0.0190632
0.0250101
0.031347
0.0381361
0.0453489
0.0528758
0.0605749
0.0683023
0.0759363
0.0833751
0.09054
0.0973625
0.103785
0.109748
0.115194
0.120053
0.124246
0.127668
0.130173
0.131541
0.131518
0.129674
0.125055
0.116342
0.11896
0.122428
0.124572
0.127484
0.131558
0.135858
0.139204
0.143622
0.148921
0.143643
0.153871
0.160029
0.168039
0.175552
0.183585
0.191628
0.199926
0.208347
0.216958
0.225717
0.234652
0.243742
0.253005
0.262426
0.272019
0.28177
0.291693
0.301774
0.312027
0.322434
0.33301
0.343737
0.35463
0.365667
0.376863
0.388197
0.399682
0.411295
0.423049
0.434919
0.446918
0.459019
0.471234
0.483538
0.495938
0.50841
0.52096
0.533561
0.546221
0.55891
0.571635
0.584367
0.59711
0.609835
0.622543
0.635205
0.647819
0.660352
0.672801
0.685129
0.697328
0.709363
0.721214
0.73285
0.744249
0.755399
0.766324
0.77711
0.787652
0.79795
0.807984
0.817747
0.82722
0.836388
0.845236
0.853747
0.861907
0.869699
0.87711
0.884124
0.890727
0.896906
0.902646
0.907937
0.912765
0.917123
0.920996
0.924381
0.927267
0.929653
0.931528
0.932895
0.933747
0.93409
0.933923
0.933228
0.93189
0.930116
0.928
0.925387
0.922201
0.918572
0.914475
0.909943
0.904983
0.899622
0.893874
0.887766
0.881319
0.874554
0.867504
0.86021
0.852713
0.845049
0.837256
0.829366
0.821408
0.813414
0.805413
0.797439
0.789519
0.781682
0.773954
0.766367
0.758948
0.751723
0.744714
0.737945
0.731434
0.725201
0.719256
0.713615
0.708281
0.703263
0.698573
0.694199
0.690132
0.686468
0.68436
0.684862
0.6854
0.686262
0.687431
0.688901
0.690573
0.692412
0.694314
0.696132
0.697508
0.698573
0.698696
0.696565
0.674519
0.00655319
0.0220264
0.0320774
0.039885
0.0470054
0.0541314
0.0615277
0.0692533
0.0772515
0.0854149
0.0936254
0.101778
0.109788
0.117589
0.12513
0.13237
0.13927
0.145791
0.151886
0.157504
0.162578
0.167039
0.170829
0.173921
0.176374
0.178546
0.181433
0.187396
0.194129
0.201422
0.20999
0.220071
0.231258
0.242924
0.256476
0.273072
0.284374
0.296398
0.308506
0.321423
0.334655
0.348251
0.362168
0.376411
0.390965
0.405834
0.421014
0.436508
0.452316
0.468443
0.484888
0.501656
0.518747
0.536165
0.55391
0.571986
0.59039
0.609126
0.62819
0.647585
0.667305
0.687351
0.707718
0.728404
0.749402
0.770708
0.792314
0.814215
0.836399
0.858861
0.881588
0.904572
0.927797
0.951254
0.974927
0.998802
1.02286
1.04709
1.07147
1.09599
1.12062
1.14534
1.17014
1.19498
1.21984
1.24469
1.26951
1.29426
1.3189
1.3434
1.3677
1.39177
1.41552
1.43888
1.46177
1.48433
1.50657
1.52847
1.55
1.57112
1.59182
1.61205
1.63177
1.65096
1.66959
1.68761
1.705
1.72172
1.73773
1.75301
1.76752
1.78124
1.79413
1.80616
1.81732
1.82757
1.83689
1.84528
1.85269
1.85914
1.86461
1.8691
1.87262
1.87486
1.87602
1.8765
1.87615
1.8746
1.87207
1.86859
1.86418
1.85886
1.85269
1.84568
1.83788
1.82934
1.82011
1.81024
1.79979
1.78883
1.77744
1.76568
1.75362
1.74132
1.72885
1.71626
1.70363
1.69102
1.67849
1.66609
1.6539
1.64197
1.63037
1.61913
1.60832
1.59798
1.58816
1.57889
1.57021
1.56214
1.55471
1.54793
1.5418
1.53631
1.53148
1.52747
1.52438
1.52197
1.5201
1.51866
1.51756
1.51659
1.51558
1.51433
1.51261
1.51018
1.50674
1.50237
1.49449
1.46881
0.013078
0.0358447
0.048661
0.0583671
0.0670222
0.0753721
0.0837507
0.0922897
0.101004
0.109846
0.118743
0.127623
0.136427
0.145109
0.153641
0.162006
0.170194
0.178205
0.186046
0.193728
0.201279
0.208743
0.216194
0.223746
0.231564
0.239909
0.24912
0.259472
0.270659
0.28272
0.295816
0.309869
0.324611
0.340089
0.356073
0.372458
0.388183
0.404201
0.420535
0.437334
0.454546
0.472163
0.490172
0.508571
0.527356
0.546526
0.566082
0.586025
0.606355
0.627075
0.648186
0.669691
0.691591
0.713886
0.736577
0.759666
0.78315
0.807029
0.831302
0.855965
0.881016
0.90645
0.932262
0.958447
0.984997
1.01191
1.03916
1.06676
1.09468
1.12292
1.15147
1.1803
1.20941
1.23878
1.26839
1.29822
1.32826
1.35848
1.38886
1.41938
1.45002
1.48075
1.51154
1.54237
1.57321
1.60402
1.63477
1.66544
1.69598
1.72637
1.75655
1.78651
1.81619
1.84557
1.87462
1.90333
1.93166
1.95957
1.98703
2.01399
2.04041
2.06624
2.09146
2.11601
2.13985
2.16293
2.18522
2.20667
2.22724
2.24688
2.26557
2.28324
2.29988
2.31544
2.32988
2.34319
2.35532
2.36626
2.37598
2.38446
2.39169
2.39767
2.40238
2.40578
2.4077
2.40846
2.40822
2.40659
2.40371
2.39961
2.39433
2.38791
2.38037
2.37179
2.36219
2.35165
2.34022
2.32797
2.31497
2.30131
2.28707
2.27234
2.25719
2.24171
2.22599
2.21009
2.1941
2.17809
2.16216
2.14636
2.13078
2.1155
2.10057
2.08607
2.07206
2.0586
2.04575
2.03354
2.02202
2.01122
2.00117
1.99188
1.98337
1.97561
1.96859
1.96232
1.9568
1.95195
1.94763
1.9437
1.94
1.93635
1.93254
1.92839
1.9237
1.91833
1.91208
1.90524
1.89595
1.8757
0.0199261
0.0484827
0.063891
0.0752685
0.0851607
0.0944795
0.103645
0.112855
0.122182
0.13163
0.141168
0.150751
0.16034
0.16991
0.179447
0.188951
0.198436
0.20793
0.217469
0.227106
0.236904
0.246941
0.257301
0.268071
0.279347
0.291226
0.303789
0.317071
0.331038
0.345721
0.361161
0.377332
0.394159
0.411585
0.429488
0.447791
0.466333
0.485205
0.504442
0.524092
0.544166
0.564669
0.585603
0.60697
0.62877
0.651006
0.67368
0.696794
0.72035
0.74435
0.768798
0.793695
0.819043
0.844843
0.871096
0.897802
0.924961
0.952571
0.980631
1.00914
1.03809
1.06748
1.0973
1.12755
1.15821
1.18929
1.22077
1.25264
1.28488
1.31749
1.35044
1.38373
1.41734
1.45124
1.48542
1.51986
1.55453
1.58942
1.62449
1.65973
1.6951
1.73058
1.76613
1.80173
1.83735
1.87294
1.90849
1.94395
1.97928
2.01446
2.04944
2.0842
2.11868
2.15286
2.18669
2.22013
2.25314
2.28568
2.31769
2.34913
2.37996
2.41012
2.43956
2.46824
2.4961
2.5231
2.54918
2.57429
2.59839
2.62143
2.64336
2.66413
2.6837
2.70203
2.71908
2.73481
2.74919
2.76218
2.77376
2.78391
2.79261
2.79985
2.80561
2.80992
2.81258
2.8137
2.81363
2.81203
2.80896
2.80448
2.79861
2.79139
2.78288
2.77312
2.76218
2.75011
2.73699
2.72288
2.70789
2.69209
2.67557
2.65844
2.64079
2.6227
2.60427
2.58559
2.56676
2.54786
2.52898
2.51021
2.49163
2.47332
2.45537
2.43785
2.42083
2.40438
2.38856
2.37342
2.35901
2.34537
2.33251
2.32046
2.30922
2.29876
2.28906
2.2801
2.27182
2.26418
2.25703
2.25024
2.24363
2.23703
2.23024
2.22312
2.21551
2.20733
2.19856
2.18957
2.17903
2.16184
0.0265474
0.060066
0.0778541
0.0908004
0.101846
0.11205
0.121919
0.131713
0.141562
0.151519
0.161592
0.17177
0.182036
0.19238
0.2028
0.21331
0.223933
0.234706
0.245677
0.256904
0.268453
0.280394
0.292794
0.305713
0.319201
0.333292
0.348004
0.363341
0.379301
0.395896
0.413139
0.431023
0.449522
0.468597
0.488201
0.508294
0.528828
0.54979
0.571183
0.593021
0.615317
0.638078
0.66131
0.685018
0.709206
0.733878
0.759039
0.784692
0.810841
0.837489
0.864641
0.892298
0.920464
0.949141
0.978329
1.00803
1.03825
1.06897
1.10021
1.13196
1.16421
1.19696
1.23021
1.26395
1.29817
1.33285
1.368
1.4036
1.43963
1.47608
1.51294
1.55018
1.58779
1.62575
1.66403
1.70262
1.74149
1.7806
1.81994
1.85948
1.89918
1.93901
1.97895
2.01895
2.05898
2.09901
2.139
2.1789
2.21869
2.25833
2.29776
2.33695
2.37586
2.41443
2.45263
2.49039
2.52768
2.56444
2.60062
2.63617
2.67103
2.70515
2.73847
2.77095
2.80251
2.83312
2.8627
2.89121
2.9186
2.9448
2.96977
2.99345
3.01579
3.03674
3.05627
3.07433
3.09087
3.10586
3.11928
3.13109
3.14127
3.14981
3.1567
3.16194
3.16544
3.1671
3.16733
3.16589
3.1628
3.1581
3.15183
3.14402
3.13473
3.12401
3.11192
3.09853
3.08392
3.06817
3.05137
3.03362
3.015
2.99563
2.97561
2.95503
2.93401
2.91263
2.89101
2.86923
2.84741
2.82562
2.80397
2.78255
2.76144
2.74073
2.7205
2.70081
2.68174
2.66334
2.64567
2.62876
2.61264
2.59733
2.58284
2.56914
2.5562
2.54399
2.53246
2.52154
2.5111
2.50101
2.49113
2.48128
2.4713
2.46107
2.45047
2.43952
2.42826
2.41715
2.40515
2.38887
0.0327399
0.0704625
0.0903859
0.10478
0.116906
0.127942
0.138468
0.1488
0.159112
0.169502
0.180016
0.190674
0.201484
0.212452
0.223588
0.234913
0.246455
0.258253
0.270353
0.282808
0.295674
0.309007
0.322858
0.33727
0.352272
0.367883
0.384108
0.400947
0.418399
0.436463
0.455143
0.474434
0.494326
0.514801
0.535837
0.557411
0.579502
0.602093
0.625179
0.648765
0.672856
0.697458
0.722578
0.748222
0.774396
0.801106
0.828358
0.856158
0.884511
0.913422
0.942896
0.972938
1.00355
1.03474
1.0665
1.09885
1.13177
1.16527
1.19936
1.23402
1.26926
1.30508
1.34145
1.37839
1.41588
1.45391
1.49247
1.53155
1.57113
1.6112
1.65174
1.69273
1.73415
1.77598
1.81819
1.86076
1.90366
1.94685
1.99031
2.03401
2.07792
2.12199
2.16619
2.21048
2.25482
2.29918
2.34351
2.38777
2.43191
2.47589
2.51966
2.56318
2.60638
2.64923
2.69165
2.73361
2.77505
2.81591
2.85613
2.89566
2.93444
2.97241
3.00951
3.04568
3.08086
3.11498
3.14799
3.17983
3.21043
3.23974
3.2677
3.29426
3.31935
3.34292
3.36493
3.38532
3.40405
3.42109
3.43638
3.44991
3.46165
3.47157
3.47966
3.48592
3.49033
3.4927
3.49335
3.4922
3.48921
3.48443
3.47787
3.4696
3.45964
3.44807
3.43495
3.42035
3.40435
3.38703
3.36849
3.34883
3.32815
3.30656
3.28417
3.26109
3.23742
3.21327
3.18876
3.16399
3.13907
3.1141
3.08918
3.0644
3.03987
3.01567
2.99188
2.96859
2.94587
2.92379
2.90239
2.88173
2.86184
2.84274
2.82445
2.80695
2.79022
2.77423
2.75892
2.74423
2.73007
2.7163
2.70281
2.68944
2.67607
2.6626
2.64896
2.6352
2.62147
2.60819
2.59447
2.57783
0.0383476
0.0795705
0.101352
0.117037
0.130144
0.141949
0.153087
0.163916
0.174648
0.185414
0.196295
0.207339
0.218576
0.23003
0.241724
0.253683
0.265939
0.278529
0.291495
0.304882
0.318734
0.333096
0.348007
0.363498
0.379591
0.3963
0.413629
0.431578
0.450147
0.469332
0.489131
0.509542
0.530558
0.552172
0.574373
0.59715
0.620492
0.64439
0.668843
0.693849
0.719413
0.74554
0.772239
0.799514
0.827376
0.855829
0.884884
0.914546
0.944823
0.975723
1.00725
1.03941
1.07222
1.10567
1.13977
1.17452
1.20993
1.246
1.28272
1.32011
1.35815
1.39684
1.43618
1.47616
1.51677
1.558
1.59985
1.64229
1.68531
1.7289
1.77303
1.81769
1.86285
1.90848
1.95455
2.00105
2.04793
2.09517
2.14272
2.19056
2.23864
2.28693
2.33538
2.38395
2.43259
2.48126
2.52992
2.5785
2.62697
2.67528
2.72336
2.77116
2.81863
2.8657
2.91232
2.95843
3.00397
3.04888
3.0931
3.13657
3.17922
3.22099
3.26182
3.30163
3.34037
3.37798
3.41437
3.4495
3.48329
3.51569
3.54663
3.57604
3.60387
3.63006
3.65456
3.6773
3.69825
3.71736
3.73458
3.74988
3.76322
3.77459
3.78396
3.79132
3.79667
3.79987
3.80105
3.80027
3.79749
3.79271
3.78596
3.7773
3.76677
3.75443
3.74034
3.72458
3.70723
3.68838
3.66812
3.64657
3.62381
3.59997
3.57517
3.5495
3.5231
3.49608
3.46855
3.44063
3.41243
3.38405
3.35562
3.32722
3.29897
3.27095
3.24326
3.21599
3.18921
3.163
3.13742
3.11253
3.08838
3.06499
3.04239
3.02058
2.99956
2.97929
2.95975
2.94087
2.92259
2.9048
2.88741
2.8703
2.85337
2.83655
2.81981
2.80324
2.78701
2.77149
2.75588
2.73822
0.0432591
0.0873289
0.110676
0.127465
0.141427
0.153918
0.165612
0.176894
0.188005
0.199104
0.210297
0.221654
0.233228
0.245057
0.257175
0.269614
0.282408
0.295592
0.309203
0.32328
0.337859
0.352975
0.368657
0.38493
0.401812
0.419315
0.437446
0.456206
0.475595
0.495612
0.516256
0.537525
0.559415
0.581926
0.605051
0.628789
0.653135
0.678088
0.703646
0.729813
0.756594
0.783994
0.812023
0.840688
0.869998
0.899964
0.930594
0.961898
0.993886
1.02657
1.05995
1.09404
1.12885
1.16438
1.20065
1.23765
1.27539
1.31388
1.35311
1.39309
1.43381
1.47527
1.51748
1.56041
1.60406
1.64843
1.6935
1.73925
1.78567
1.83274
1.88043
1.92873
1.9776
2.02703
2.07697
2.12739
2.17826
2.22955
2.28121
2.33319
2.38547
2.43798
2.49069
2.54355
2.5965
2.64949
2.70247
2.75539
2.80818
2.8608
2.91317
2.96524
3.01694
3.06822
3.119
3.16923
3.21883
3.26775
3.31592
3.36326
3.40973
3.45524
3.49972
3.54312
3.58536
3.62637
3.66609
3.70444
3.74136
3.77678
3.81064
3.84286
3.87339
3.90216
3.92911
3.95419
3.97734
3.99851
4.01765
4.03473
4.0497
4.06254
4.07322
4.08173
4.08805
4.09211
4.09391
4.09359
4.09107
4.08635
4.07948
4.07049
4.05944
4.04638
4.03137
4.0145
3.99583
3.97547
3.95351
3.93006
3.90521
3.8791
3.85183
3.82352
3.79431
3.7643
3.73363
3.7024
3.67074
3.63877
3.6066
3.57433
3.54208
3.50994
3.47803
3.44642
3.41522
3.3845
3.35434
3.3248
3.29595
3.26783
3.24048
3.21392
3.18817
3.16321
3.13903
3.11561
3.09289
3.07081
3.04929
3.02827
3.00765
2.9874
2.96753
2.94814
2.9294
2.91164
2.89405
2.87503
0.0474051
0.0937215
0.118337
0.136035
0.150715
0.163794
0.175972
0.187656
0.199105
0.210497
0.221955
0.23357
0.245409
0.257524
0.269958
0.282749
0.295933
0.309545
0.323617
0.338184
0.353275
0.36892
0.385141
0.401961
0.419393
0.437451
0.456142
0.475471
0.495441
0.516053
0.537308
0.559208
0.581753
0.604946
0.628786
0.653275
0.678415
0.704209
0.730661
0.757776
0.785563
0.814029
0.843184
0.87304
0.903607
0.934897
0.966923
0.999695
1.03323
1.06753
1.10261
1.13849
1.17517
1.21266
1.25097
1.2901
1.33008
1.37089
1.41254
1.45503
1.49837
1.54255
1.58756
1.63341
1.68007
1.72755
1.77581
1.82486
1.87467
1.92522
1.97648
2.02842
2.08103
2.13426
2.18808
2.24245
2.29734
2.35269
2.40847
2.46462
2.52111
2.57786
2.63485
2.69199
2.74925
2.80656
2.86386
2.92109
2.97818
3.03508
3.0917
3.14799
3.20388
3.2593
3.31417
3.36844
3.42202
3.47485
3.52687
3.578
3.62816
3.67729
3.72532
3.77218
3.81779
3.86208
3.90499
3.94643
3.98635
4.02467
4.06132
4.09624
4.12935
4.1606
4.18991
4.21723
4.2425
4.26566
4.28667
4.30547
4.32204
4.33632
4.3483
4.35794
4.36524
4.37015
4.37263
4.37279
4.37057
4.36597
4.35901
4.34974
4.33821
4.32447
4.30859
4.29064
4.2707
4.24886
4.22521
4.19987
4.17294
4.14454
4.11479
4.0838
4.05172
4.01866
3.98474
3.9501
3.91486
3.87913
3.84304
3.8067
3.77024
3.73375
3.69734
3.66113
3.6252
3.58965
3.55458
3.52005
3.48616
3.45295
3.42049
3.38883
3.358
3.32801
3.29889
3.27063
3.24322
3.21663
3.19081
3.16573
3.14134
3.11762
3.0946
3.07241
3.05118
3.0312
3.01165
2.99124
0.0507527
0.0987758
0.124377
0.142792
0.158047
0.171608
0.184192
0.196217
0.207957
0.219599
0.231281
0.243104
0.255148
0.267475
0.280135
0.293172
0.306622
0.32052
0.334898
0.349785
0.365209
0.381196
0.397764
0.414934
0.43272
0.451135
0.470188
0.489887
0.510239
0.531248
0.55292
0.575259
0.598271
0.62196
0.646333
0.671394
0.69715
0.72361
0.75078
0.77867
0.807292
0.836656
0.866776
0.897665
0.929338
0.961809
0.995092
1.0292
1.06415
1.09996
1.13664
1.1742
1.21266
1.25202
1.2923
1.33351
1.37566
1.41874
1.46278
1.50776
1.55368
1.60056
1.64838
1.69713
1.7468
1.79739
1.84887
1.90123
1.95444
2.00849
2.06334
2.11896
2.17532
2.23238
2.29011
2.34845
2.40736
2.4668
2.52671
2.58704
2.64773
2.70872
2.76996
2.83138
2.89291
2.95449
3.01606
3.07753
3.13885
3.19994
3.26073
3.32114
3.3811
3.44053
3.49937
3.55752
3.61493
3.67152
3.72721
3.78193
3.83561
3.88817
3.93953
3.98964
4.0384
4.08576
4.13164
4.17596
4.21866
4.25966
4.2989
4.3363
4.3718
4.40533
4.43683
4.46622
4.49345
4.51846
4.54121
4.56163
4.57968
4.59532
4.60852
4.61925
4.62748
4.6332
4.63636
4.637
4.63512
4.63065
4.62362
4.61409
4.60212
4.58774
4.57103
4.55205
4.53088
4.50761
4.48232
4.45513
4.42615
4.39548
4.36326
4.32959
4.29463
4.25848
4.22129
4.18317
4.14426
4.10469
4.06458
4.02405
3.98322
3.94222
3.90115
3.86013
3.81927
3.77868
3.73845
3.6987
3.6595
3.62094
3.58312
3.54609
3.50992
3.47466
3.44037
3.40706
3.37477
3.34351
3.31327
3.28405
3.25582
3.22861
3.20247
3.1775
3.15383
3.13169
3.11025
3.08852
0.0533043
0.102559
0.128886
0.147837
0.163531
0.177466
0.190369
0.20267
0.214645
0.22649
0.23835
0.250334
0.262528
0.275
0.287807
0.300996
0.314606
0.328672
0.343225
0.358294
0.373903
0.390075
0.406831
0.424188
0.442163
0.460769
0.48002
0.499925
0.520495
0.541739
0.563666
0.586286
0.609608
0.633642
0.658398
0.683886
0.710117
0.737102
0.764854
0.793386
0.822714
0.852852
0.883819
0.915631
0.948305
0.981859
1.01631
1.05168
1.08798
1.12523
1.16345
1.20265
1.24284
1.28405
1.32629
1.36955
1.41387
1.45923
1.50565
1.55313
1.60167
1.65127
1.70192
1.75361
1.80633
1.86007
1.91481
1.97052
2.02718
2.08477
2.14324
2.20257
2.26271
2.32363
2.38527
2.44759
2.51053
2.57404
2.63806
2.70253
2.76739
2.83256
2.89799
2.96359
3.02931
3.09506
3.16077
3.22636
3.29175
3.35688
3.42165
3.48599
3.54982
3.61305
3.67561
3.73743
3.79841
3.85848
3.91757
3.97561
4.0325
4.08818
4.14258
4.19562
4.24723
4.29733
4.34585
4.39273
4.43789
4.48126
4.52277
4.56236
4.59995
4.63549
4.66889
4.7001
4.72905
4.75569
4.77996
4.8018
4.82117
4.83803
4.85232
4.86403
4.87311
4.87956
4.88333
4.88444
4.88289
4.87856
4.87146
4.8617
4.84931
4.83434
4.81685
4.7969
4.77456
4.74991
4.72305
4.69408
4.66311
4.63023
4.59559
4.5593
4.52149
4.48229
4.44184
4.40026
4.35769
4.31426
4.2701
4.22533
4.18009
4.1345
4.08868
4.04276
3.99686
3.9511
3.90559
3.86046
3.81581
3.77176
3.7284
3.68584
3.64418
3.6035
3.56388
3.52539
3.48811
3.45208
3.41735
3.38393
3.35186
3.32116
3.29191
3.26422
3.23818
3.21397
3.19077
3.16785
0.0550989
0.10518
0.131994
0.151316
0.167318
0.181519
0.194655
0.207157
0.219307
0.231301
0.243287
0.25538
0.267671
0.28023
0.293118
0.306383
0.320064
0.334198
0.348816
0.363946
0.379614
0.395841
0.41265
0.43006
0.44809
0.466755
0.486072
0.506055
0.526716
0.548069
0.570127
0.592907
0.616424
0.64069
0.665721
0.691531
0.718136
0.745552
0.773796
0.802887
0.832844
0.863688
0.89544
0.92812
0.961751
0.996354
1.03195
1.06856
1.1062
1.1449
1.18466
1.22552
1.26749
1.31058
1.35481
1.40019
1.44673
1.49444
1.54332
1.59337
1.6446
1.697
1.75056
1.80527
1.86112
1.91808
1.97614
2.03527
2.09544
2.15661
2.21874
2.28181
2.34575
2.41052
2.47606
2.54233
2.60926
2.67678
2.74484
2.81336
2.88227
2.95149
3.02096
3.09059
3.1603
3.23001
3.29965
3.36911
3.43833
3.50722
3.57568
3.64365
3.71102
3.77772
3.84366
3.90876
3.97294
4.03612
4.09821
4.15914
4.21884
4.27722
4.33422
4.38976
4.44376
4.49617
4.5469
4.59589
4.64308
4.68839
4.73176
4.77312
4.81241
4.84956
4.8845
4.91718
4.94752
4.97548
5.00098
5.02398
5.04443
5.06228
5.07749
5.09001
5.09982
5.10688
5.11118
5.1127
5.11145
5.10725
5.10007
5.09009
5.07732
5.0618
5.04359
5.02273
4.9993
4.97338
4.94504
4.91439
4.88152
4.84655
4.80959
4.77078
4.73022
4.68807
4.64445
4.59949
4.55333
4.5061
4.45795
4.40899
4.35937
4.30921
4.25866
4.20785
4.1569
4.10595
4.05514
4.0046
3.95446
3.90485
3.85591
3.80776
3.76054
3.71438
3.66937
3.62566
3.58334
3.54252
3.50327
3.46566
3.42975
3.3956
3.36331
3.33296
3.30465
3.27849
3.2537
3.22978
0.0562077
0.106764
0.133851
0.153393
0.169582
0.183949
0.19723
0.209859
0.222115
0.234201
0.246262
0.258414
0.270747
0.283334
0.296235
0.3095
0.323172
0.337286
0.351877
0.366972
0.382598
0.398779
0.41554
0.432901
0.450886
0.469516
0.48881
0.508791
0.529463
0.550842
0.572948
0.595815
0.619462
0.643905
0.669161
0.695247
0.722183
0.749994
0.778703
0.808336
0.838917
0.870472
0.903026
0.936605
0.971233
1.00694
1.04374
1.08166
1.12073
1.16097
1.2024
1.24503
1.28889
1.334
1.38036
1.42799
1.4769
1.5271
1.57859
1.63137
1.68543
1.74077
1.79737
1.85523
1.91431
1.97461
2.03608
2.0987
2.16243
2.22722
2.29304
2.35984
2.42756
2.49614
2.56552
2.63565
2.70644
2.77784
2.84976
2.92214
2.99488
3.06791
3.14115
3.21451
3.2879
3.36124
3.43443
3.50739
3.58003
3.65225
3.72397
3.79509
3.86554
3.93521
4.00402
4.07189
4.13873
4.20446
4.26901
4.33228
4.39421
4.45473
4.51375
4.57121
4.62704
4.68117
4.73355
4.78409
4.83275
4.87946
4.92415
4.96676
5.00724
5.04552
5.08154
5.11524
5.14656
5.17544
5.20182
5.22565
5.24687
5.26545
5.28132
5.29445
5.3048
5.31235
5.31705
5.31891
5.31791
5.31382
5.30656
5.29636
5.28324
5.26723
5.24836
5.22669
5.20228
5.17519
5.14551
5.11331
5.0787
5.04178
5.00267
4.96148
4.91835
4.8734
4.82677
4.77859
4.72899
4.67812
4.62611
4.5731
4.51923
4.46464
4.40946
4.35386
4.29796
4.24192
4.18588
4.13
4.07443
4.01933
3.96485
3.91117
3.85843
3.80681
3.75646
3.70755
3.66023
3.61464
3.57091
3.52915
3.48947
3.45195
3.41669
3.38379
3.35332
3.32537
3.29917
3.27451
0.0566131
0.107343
0.134582
0.154233
0.170509
0.184948
0.198293
0.210976
0.223276
0.235389
0.247464
0.259613
0.271927
0.28448
0.297333
0.310536
0.324132
0.338159
0.352652
0.367642
0.383156
0.399223
0.41587
0.433122
0.451005
0.469547
0.488775
0.50872
0.529371
0.55076
0.572908
0.595875
0.619671
0.644316
0.669831
0.696232
0.723534
0.75179
0.781033
0.811293
0.842599
0.874983
0.908474
0.943101
0.978892
1.01587
1.05408
1.09352
1.13424
1.17625
1.21958
1.26424
1.31025
1.35762
1.40638
1.45653
1.50807
1.56101
1.61535
1.67109
1.7282
1.78669
1.84653
1.9077
1.97017
2.03392
2.09889
2.16507
2.23239
2.30081
2.37029
2.44075
2.51214
2.58439
2.65744
2.73121
2.80563
2.88061
2.95608
3.03196
3.10815
3.18458
3.26114
3.33774
3.41431
3.49073
3.56693
3.64279
3.71824
3.79317
3.86749
3.94112
4.01395
4.08591
4.15689
4.22681
4.2956
4.36316
4.42942
4.49431
4.55774
4.61965
4.67996
4.73862
4.79555
4.8507
4.90401
4.95542
5.00487
5.0523
5.09767
5.14092
5.18198
5.22082
5.25736
5.29156
5.32336
5.3527
5.37952
5.40378
5.42543
5.4444
5.46065
5.47415
5.48484
5.49268
5.49766
5.49976
5.49895
5.49496
5.4876
5.47721
5.46378
5.44734
5.42792
5.40556
5.3803
5.3522
5.32133
5.28777
5.25161
5.21296
5.1719
5.12857
5.08309
5.03558
4.98617
4.935
4.8822
4.82791
4.77228
4.71544
4.65753
4.59872
4.53913
4.47894
4.41829
4.35734
4.29626
4.23522
4.1744
4.11396
4.05411
3.99503
3.93692
3.87997
3.8244
3.77041
3.7182
3.66796
3.61987
3.57407
3.53065
3.48977
3.45159
3.41622
3.38371
3.35414
3.32675
3.30167
0.0565214
0.107196
0.134402
0.154041
0.170306
0.184735
0.198065
0.210727
0.222999
0.235079
0.247112
0.259211
0.271467
0.283951
0.296724
0.309836
0.323333
0.337253
0.351632
0.366503
0.381899
0.397849
0.414386
0.431537
0.449334
0.467804
0.48698
0.506887
0.527558
0.549024
0.571314
0.594457
0.618485
0.64343
0.669331
0.696194
0.724038
0.752945
0.782949
0.814083
0.846384
0.879889
0.914637
0.950655
0.987969
1.02661
1.06661
1.10799
1.15078
1.195
1.24066
1.28778
1.33638
1.38647
1.43805
1.49113
1.5457
1.60177
1.65932
1.71834
1.7788
1.8407
1.90399
1.96866
2.03465
2.10193
2.17046
2.24017
2.31103
2.38297
2.45593
2.52984
2.60463
2.68024
2.75658
2.83357
2.91114
2.9892
3.06766
3.14644
3.22544
3.30457
3.38373
3.46284
3.5418
3.62051
3.69887
3.77679
3.85417
3.93092
4.00695
4.08216
4.15645
4.22975
4.30197
4.37301
4.44279
4.51125
4.57829
4.64385
4.70786
4.77025
4.83096
4.88992
4.94708
5.00239
5.05579
5.10724
5.15669
5.20408
5.24938
5.29254
5.3335
5.37223
5.40867
5.44278
5.47449
5.50377
5.53056
5.55482
5.57648
5.5955
5.61183
5.62542
5.63621
5.64418
5.64929
5.65155
5.65086
5.64696
5.63951
5.62896
5.6153
5.59854
5.57869
5.55578
5.52984
5.50093
5.4691
5.43442
5.39697
5.35683
5.31412
5.26893
5.22139
5.17161
5.11974
5.06589
5.0102
4.95281
4.89387
4.83351
4.77189
4.70915
4.64546
4.58098
4.51587
4.45031
4.38447
4.31855
4.25274
4.18724
4.12225
4.05803
3.99478
3.93275
3.87209
3.8131
3.75605
3.7012
3.64877
3.59899
3.55204
3.50816
3.46739
3.42985
3.3956
3.36469
3.33639
3.31117
0.0560963
0.106551
0.133576
0.153096
0.169252
0.183572
0.196797
0.209353
0.221519
0.233489
0.245409
0.257389
0.269519
0.281869
0.294502
0.307468
0.320815
0.334584
0.348816
0.363548
0.378815
0.394655
0.411106
0.428208
0.446
0.46452
0.483801
0.503879
0.524799
0.546608
0.569326
0.592985
0.617624
0.643275
0.669954
0.697697
0.726591
0.756693
0.788044
0.820684
0.854649
0.889973
0.926681
0.964809
1.00439
1.04545
1.08802
1.13214
1.17781
1.22505
1.27387
1.32425
1.37622
1.42977
1.48488
1.54157
1.5998
1.65957
1.72085
1.78361
1.84782
1.91344
1.98044
2.04876
2.11837
2.1892
2.2612
2.33431
2.40847
2.48362
2.55967
2.63657
2.71423
2.79258
2.87154
2.95102
3.03095
3.11122
3.19177
3.27249
3.35329
3.43409
3.51478
3.59528
3.67549
3.75531
3.83465
3.91342
3.99152
4.06886
4.14535
4.2209
4.29542
4.36883
4.44104
4.51197
4.58154
4.64967
4.71631
4.78138
4.84481
4.90656
4.96655
5.02473
5.08106
5.13549
5.18799
5.23852
5.28703
5.33348
5.37784
5.42007
5.46014
5.49801
5.53364
5.56698
5.59799
5.62663
5.65285
5.67661
5.69786
5.71654
5.7326
5.74598
5.75663
5.76451
5.7696
5.77192
5.77132
5.7675
5.75998
5.74933
5.73551
5.71853
5.69839
5.6751
5.64868
5.61918
5.58663
5.55108
5.5126
5.47128
5.4272
5.38047
5.33118
5.27947
5.22546
5.16926
5.11103
5.05088
4.98897
4.92543
4.86043
4.79411
4.72665
4.65821
4.58897
4.51912
4.44885
4.37835
4.30777
4.23739
4.16746
4.09824
4.03002
3.96304
3.89769
3.83424
3.77291
3.714
3.65778
3.60452
3.55449
3.50774
3.46451
3.42497
3.38914
3.3571
3.32812
3.30313
0.0552797
0.105279
0.131937
0.151199
0.16713
0.181246
0.19428
0.206661
0.218665
0.230487
0.242268
0.25412
0.266129
0.278368
0.290899
0.303779
0.317058
0.330783
0.345001
0.359759
0.375099
0.391066
0.407707
0.425075
0.443234
0.462208
0.482037
0.502769
0.524447
0.547091
0.570718
0.595418
0.621255
0.64829
0.676596
0.706216
0.737201
0.7696
0.803456
0.838807
0.875685
0.914118
0.954129
0.995741
1.03897
1.08383
1.13034
1.17849
1.22828
1.27971
1.33275
1.38741
1.44367
1.5015
1.56088
1.62178
1.68417
1.74801
1.81326
1.87988
1.94781
2.01702
2.08745
2.15903
2.23173
2.30547
2.3802
2.45584
2.53234
2.60963
2.68764
2.76628
2.8455
2.92521
3.00534
3.08581
3.16653
3.24743
3.32843
3.40942
3.49034
3.57109
3.65159
3.73174
3.81146
3.89066
3.96925
4.04715
4.12426
4.2005
4.27578
4.35002
4.42314
4.49507