/*--------------------------------*- C++ -*----------------------------------*\
  =========                 |
  \\      /  F ield         | OpenFOAM: The Open Source CFD Toolbox
   \\    /   O peration     | Website:  https://openfoam.org
    \\  /    A nd           | Version:  13
     \\/     M anipulation  |
\*---------------------------------------------------------------------------*/
FoamFile
{
    format      ascii;
    class       volScalarField;
    location    "200";
    object      nut;
}
// * * * * * * * * * * * * * * * * * * * * * * * * * * * * * * * * * * * * * //

dimensions      [0 2 -1 0 0 0 0];

internalField   nonuniform List<scalar> 
12225
(
4.14702e-05
3.94073e-05
3.76217e-05
3.56088e-05
3.39951e-05
3.26387e-05
3.17402e-05
3.11203e-05
3.1118e-05
3.12834e-05
3.17332e-05
3.22671e-05
3.32796e-05
3.39096e-05
3.5241e-05
3.58178e-05
3.75492e-05
3.99448e-05
0.000332119
0.00021641
0.000180293
0.000158572
0.000147132
0.000138881
0.000133308
0.000131997
0.000129818
0.000130243
0.000129232
0.000129563
0.000128801
0.000128653
0.000128221
0.000127493
0.000127565
0.000126463
0.000669944
0.000450951
0.000355857
0.000309846
0.00027539
0.000251123
0.000231914
0.000217496
0.000202977
0.000192402
0.000182948
0.000175494
0.000169701
0.000163954
0.000160609
0.000155815
0.000154106
0.00015003
0.000801478
0.000691572
0.000571861
0.000498941
0.000448337
0.000411058
0.00037998
0.000355308
0.000333452
0.000314311
0.000298004
0.000281515
0.000270155
0.000255964
0.000248182
0.00023613
0.000230581
0.000220432
0.000839625
0.000810157
0.000740364
0.000675709
0.000622817
0.000580211
0.000544696
0.000513395
0.000488415
0.000463386
0.000444895
0.000423213
0.000409151
0.000390103
0.000379269
0.000362461
0.000354292
0.000338902
0.00085034
0.000843345
0.000819547
0.00078619
0.000750366
0.000715206
0.000684931
0.000655192
0.00063155
0.000606484
0.000587949
0.000566218
0.000551267
0.00053212
0.000519844
0.000502749
0.000492802
0.000476468
0.000851589
0.000851
0.000843324
0.000833473
0.000817028
0.000796728
0.000777543
0.00075627
0.000738337
0.000718493
0.000702813
0.000684849
0.000671315
0.000655088
0.00064347
0.000628603
0.000618999
0.000604119
0.000851584
0.000851815
0.000850036
0.000847511
0.000841367
0.000833741
0.000824818
0.000813287
0.00080262
0.000790195
0.000779383
0.000767141
0.000756984
0.000745283
0.000736024
0.000724889
0.000716899
0.000705242
0.000851672
0.000851535
0.000851009
0.000850361
0.000848889
0.000846175
0.000843062
0.000838293
0.000833403
0.00082727
0.000821137
0.000814639
0.000808287
0.000801298
0.00079507
0.000788051
0.000782233
0.000774595
0.000851753
0.000851388
0.000851042
0.000850633
0.000850258
0.00084937
0.000848427
0.000846791
0.000844981
0.000842535
0.000839926
0.000836785
0.000833773
0.000830109
0.000826914
0.000822843
0.000819829
0.000815154
0.000851784
0.000851358
0.000851013
0.000850611
0.000850333
0.000849905
0.000849533
0.000848935
0.000848317
0.000847406
0.000846481
0.00084519
0.000844002
0.000842359
0.000841
0.000839028
0.000837634
0.000835342
0.000851789
0.000851359
0.000850996
0.000850604
0.000850293
0.000849938
0.000849648
0.000849282
0.00084896
0.000848511
0.000848107
0.000847518
0.000847009
0.000846256
0.000845654
0.000844732
0.000844069
0.000842984
0.000851786
0.000851362
0.000850986
0.000850603
0.000850269
0.000849926
0.00084963
0.000849313
0.000849043
0.00084873
0.000848465
0.00084813
0.000847849
0.000847472
0.000847164
0.000846734
0.000846396
0.000845912
0.000851783
0.000851364
0.000850978
0.000850601
0.000850256
0.000849916
0.000849607
0.000849299
0.000849022
0.000848741
0.000848488
0.000848225
0.00084799
0.000847736
0.00084751
0.000847261
0.000847037
0.000846788
0.000851781
0.000851364
0.000850973
0.000850598
0.000850246
0.000849908
0.000849591
0.000849286
0.000849
0.000848723
0.000848463
0.000848211
0.000847975
0.000847745
0.000847528
0.000847316
0.000847116
0.00084692
0.00085178
0.000851363
0.000850969
0.000850594
0.000850239
0.000849901
0.00084958
0.000849275
0.000848984
0.000848707
0.000848443
0.000848191
0.000847951
0.000847721
0.000847502
0.000847293
0.000847093
0.000846901
0.000851779
0.000851362
0.000850967
0.000850591
0.000850234
0.000849895
0.000849572
0.000849265
0.000848973
0.000848694
0.000848428
0.000848175
0.000847933
0.000847701
0.00084748
0.000847269
0.000847067
0.000846874
0.000851779
0.000851362
0.000850965
0.000850588
0.000850231
0.00084989
0.000849567
0.000849259
0.000848965
0.000848685
0.000848418
0.000848163
0.00084792
0.000847687
0.000847465
0.000847252
0.000847049
0.000846854
0.000851779
0.000851362
0.000850965
0.000850588
0.00085023
0.000849889
0.000849565
0.000849256
0.000848962
0.000848681
0.000848414
0.000848158
0.000847914
0.00084768
0.000847457
0.000847243
0.000847039
0.000846844
0.000851779
0.000851362
0.000850966
0.000850589
0.000850231
0.000849891
0.000849567
0.000849259
0.000848965
0.000848685
0.000848417
0.000848162
0.000847917
0.000847684
0.00084746
0.000847246
0.000847041
0.000846845
0.000851779
0.000851363
0.000850967
0.000850592
0.000850235
0.000849897
0.000849573
0.000849267
0.000848973
0.000848694
0.000848425
0.000848169
0.00084792
0.000847685
0.000847453
0.000847233
0.000847015
0.000846809
0.000851778
0.000851366
0.000850968
0.000850599
0.00085024
0.000849908
0.000849581
0.000849275
0.000848966
0.000848674
0.000848369
0.000848077
0.000847763
0.000847464
0.000847132
0.000846822
0.00084647
0.00084615
0.000851774
0.000851375
0.000850972
0.000850615
0.000850242
0.000849893
0.000849484
0.000849063
0.000848542
0.000847995
0.000847321
0.000846628
0.000845793
0.000844968
0.000843985
0.000843061
0.00084195
0.000840972
0.000851772
0.000851412
0.00085097
0.000850546
0.000849878
0.000848985
0.000847635
0.000846013
0.000843945
0.000841679
0.000838997
0.000836254
0.000833151
0.000830143
0.000826784
0.000823695
0.000820189
0.000817176
0.000851875
0.000851375
0.000850212
0.00084825
0.000844554
0.000839353
0.000832815
0.000825726
0.00081797
0.000809999
0.00080158
0.000793565
0.000785244
0.000777598
0.000769613
0.000762552
0.000754957
0.000748615
0.000852164
0.0008476
0.000839898
0.000827228
0.000808726
0.000789594
0.000769855
0.000751245
0.000733088
0.000716642
0.000700652
0.000686474
0.000672509
0.000660339
0.00064804
0.000637599
0.000626611
0.000617679
0.000843227
0.000822454
0.000775021
0.000726447
0.000684588
0.000649579
0.000618158
0.000591723
0.000568079
0.000548029
0.000529415
0.000513726
0.000498518
0.000485795
0.000473005
0.000462528
0.00045147
0.000442668
0.000795009
0.00066872
0.000570981
0.00051017
0.000465917
0.000431459
0.000404397
0.000382768
0.000364444
0.000349361
0.00033616
0.000325318
0.000314803
0.000306483
0.000298224
0.000291634
0.000284559
0.000279206
0.000500388
0.00034928
0.000293537
0.000260351
0.000237514
0.000221979
0.000212411
0.000204542
0.000199099
0.00019553
0.000192603
0.000190701
0.000188876
0.000187706
0.000186403
0.000185691
0.000184753
0.00018433
7.27168e-05
7.02669e-05
6.80495e-05
6.57502e-05
6.35639e-05
6.1476e-05
5.97057e-05
5.81754e-05
5.6932e-05
5.59219e-05
5.51918e-05
5.4626e-05
5.43105e-05
5.4078e-05
5.40731e-05
5.41264e-05
5.42498e-05
5.44859e-05
4.70701e-07
1.06344e-05
1.89856e-05
2.69141e-05
3.52995e-05
4.42286e-05
5.38019e-05
6.39749e-05
7.46005e-05
8.54675e-05
9.63785e-05
0.000107148
0.000117637
0.000127717
0.000137297
0.000146276
0.000154575
0.000162085
0.000168692
0.000174208
0.00017837
0.000180729
0.000181083
0.000178282
0.000169794
0.000155333
3.12843e-05
3.19822e-05
3.2561e-05
3.32982e-05
3.50958e-05
3.78274e-05
4.16086e-05
4.4212e-05
4.69753e-05
0.000223402
4.56307e-05
4.85842e-05
4.93189e-05
5.0535e-05
5.1638e-05
5.27759e-05
5.38976e-05
5.50248e-05
5.61455e-05
5.72649e-05
5.83811e-05
5.9494e-05
6.06047e-05
6.17119e-05
6.28172e-05
6.3919e-05
6.50189e-05
6.61157e-05
6.72103e-05
6.83018e-05
6.93909e-05
7.04768e-05
7.15598e-05
7.26392e-05
7.37153e-05
7.47874e-05
7.58556e-05
7.6919e-05
7.79778e-05
7.90312e-05
8.0079e-05
8.11206e-05
8.21558e-05
8.31838e-05
8.42043e-05
8.52168e-05
8.62207e-05
8.72154e-05
8.82005e-05
8.91752e-05
9.01391e-05
9.10917e-05
9.20321e-05
9.296e-05
9.38745e-05
9.47752e-05
9.56611e-05
9.65317e-05
9.73858e-05
9.82229e-05
9.90417e-05
9.98414e-05
0.000100621
0.000101378
0.000102112
0.000102822
0.000103507
0.000104166
0.000104805
0.000105429
0.000106026
0.000106602
0.000107153
0.000107681
0.000108184
0.000108662
0.000109115
0.000109541
0.00010994
0.000110311
0.000110655
0.00011097
0.000111255
0.000111512
0.000111737
0.000111933
0.000112097
0.00011223
0.000112331
0.0001124
0.000112437
0.00011244
0.000112411
0.00011235
0.000112255
0.000112128
0.000111968
0.000111765
0.000111531
0.000111276
0.000110994
0.000110669
0.000110316
0.00010993
0.000109514
0.000109067
0.000108592
0.000108088
0.000107558
0.000107001
0.000106419
0.000105814
0.00010519
0.000104546
0.000103885
0.000103208
0.000102519
0.000101818
0.000101108
0.000100391
9.96686e-05
9.89424e-05
9.82149e-05
9.74868e-05
9.67624e-05
9.60432e-05
9.5332e-05
9.46293e-05
9.39391e-05
9.32618e-05
9.2601e-05
9.1957e-05
9.13325e-05
9.07274e-05
9.01451e-05
8.9588e-05
8.90559e-05
8.85512e-05
8.80991e-05
8.79593e-05
8.79959e-05
8.77752e-05
8.7589e-05
8.74328e-05
8.73168e-05
8.72236e-05
8.71547e-05
8.71312e-05
8.71309e-05
8.70814e-05
8.70361e-05
8.69445e-05
8.67163e-05
8.53895e-05
2.02758e-06
3.84989e-05
8.1231e-05
0.000110573
0.000130292
0.000145449
0.000158726
0.000171451
0.000184147
0.000196906
0.000209629
0.000222145
0.000234276
0.000245849
0.000256689
0.000266603
0.000275351
0.000282592
0.000287831
0.000290336
0.000289081
0.000282743
0.000269865
0.000249121
0.000220374
0.000185914
0.000150048
0.000151586
0.000157606
0.00016677
0.00017958
0.000195889
0.000215112
0.00023597
0.000260048
0.000296177
0.000268558
0.000277885
0.000284012
0.0002912
0.000298733
0.000306363
0.000314198
0.000322125
0.000330166
0.000338286
0.000346489
0.000354763
0.000363113
0.000371532
0.000380026
0.000388592
0.000397236
0.000405955
0.000414757
0.000423638
0.000432605
0.000441656
0.000450796
0.000460022
0.000469339
0.000478745
0.000488242
0.000497828
0.000507506
0.00051727
0.000527125
0.000537063
0.000547088
0.000557192
0.000567378
0.000577638
0.000587974
0.000598378
0.00060885
0.000619383
0.000629976
0.00064062
0.000651317
0.000662057
0.000672841
0.000683661
0.000694516
0.0007054
0.000716312
0.000727243
0.00073819
0.000749142
0.000760088
0.000771005
0.000781859
0.000792583
0.000803068
0.000813132
0.000822483
0.000831604
0.00084062
0.000849519
0.000858294
0.000866938
0.00087544
0.000883791
0.00089198
0.000899997
0.00090783
0.00091547
0.000922905
0.000930124
0.000937116
0.000943871
0.000950375
0.000956619
0.000962592
0.000968283
0.000973682
0.00097878
0.000983567
0.000988036
0.000992179
0.000995995
0.000999482
0.00100266
0.00100559
0.00100794
0.00100973
0.00101141
0.00101295
0.00101397
0.00101463
0.00101493
0.00101487
0.00101447
0.00101372
0.00101265
0.00101125
0.00100955
0.00100756
0.00100529
0.00100275
0.000999949
0.000996917
0.000993671
0.000990238
0.000986636
0.00098289
0.000979018
0.000975046
0.000970991
0.00096688
0.000962734
0.000958585
0.000954449
0.000950352
0.000946311
0.000942358
0.000938509
0.000934792
0.000931222
0.000927823
0.000924604
0.000921583
0.000918769
0.000916166
0.000913771
0.000911566
0.000909423
0.000905703
0.000901453
0.000897275
0.000893112
0.000889046
0.000884897
0.000880631
0.000876372
0.000871931
0.000867164
0.000861749
0.000855213
0.000846132
0.000821295
4.05399e-06
6.03303e-05
0.000125121
0.000174488
0.000210509
0.000237139
0.000257918
0.000275343
0.000290969
0.000305647
0.000319761
0.00033342
0.000346597
0.000359203
0.000371078
0.000382055
0.000391926
0.000400413
0.000407124
0.000411526
0.000412947
0.000410672
0.000404205
0.000393758
0.000380755
0.000367977
0.00036014
0.000368614
0.00038324
0.000401692
0.000423153
0.000446501
0.000470315
0.000493939
0.000515417
0.000533536
0.000541256
0.000556588
0.000571772
0.000587296
0.000603053
0.000618984
0.000635097
0.000651359
0.000667767
0.00068431
0.000700987
0.000717795
0.000734735
0.000751809
0.00076902
0.000786372
0.000803868
0.000821509
0.000839301
0.000857245
0.000875343
0.000893596
0.000912006
0.000930574
0.000949298
0.000968178
0.000987213
0.0010064
0.00102574
0.00104522
0.00106485
0.00108461
0.00110451
0.00112453
0.00114467
0.00116493
0.00118529
0.00120575
0.00122629
0.00124692
0.00126762
0.00128838
0.0013092
0.00133005
0.00135094
0.00137185
0.00139277
0.00141369
0.00143459
0.00145546
0.00147627
0.00149701
0.00151765
0.00153813
0.00155842
0.00157842
0.00159806
0.00161725
0.00163598
0.00165445
0.00167269
0.00169069
0.00170843
0.00172588
0.00174304
0.00175987
0.00177636
0.0017925
0.00180825
0.00182359
0.00183851
0.00185298
0.00186699
0.0018805
0.0018935
0.00190596
0.00191787
0.0019292
0.00193994
0.00195006
0.00195955
0.00196839
0.00197657
0.00198407
0.0019909
0.00199705
0.00200269
0.00200765
0.0020112
0.00201423
0.00201701
0.00201889
0.00202
0.00202039
0.00202006
0.00201902
0.00201729
0.00201488
0.00201183
0.00200814
0.00200386
0.001999
0.00199359
0.00198766
0.00198125
0.00197441
0.00196719
0.00195961
0.00195174
0.0019436
0.00193525
0.00192673
0.00191809
0.00190937
0.00190062
0.0018919
0.00188323
0.00187467
0.00186626
0.00185805
0.00185008
0.00184238
0.00183498
0.00182793
0.00182123
0.0018149
0.00180894
0.00180334
0.00179803
0.0017927
0.00178615
0.00177916
0.00177203
0.00176489
0.00175784
0.00175038
0.0017428
0.00173546
0.00172767
0.00171915
0.00170954
0.00169785
0.0016807
0.00163967
6.18184e-06
7.68195e-05
0.000158229
0.000222318
0.000270389
0.000306569
0.000334619
0.000357385
0.000376858
0.000394319
0.000410524
0.000425871
0.000440529
0.000454533
0.000467889
0.000480558
0.000492484
0.000503603
0.000513836
0.000523076
0.000531194
0.000538078
0.000543726
0.000548419
0.000552954
0.000558838
0.000568219
0.000583086
0.000601315
0.000621773
0.000643859
0.000667001
0.00069062
0.000714308
0.00073729
0.000758693
0.000778814
0.000800489
0.000822549
0.000844933
0.000867499
0.000890243
0.000913162
0.000936252
0.000959513
0.000982943
0.00100654
0.00103032
0.00105427
0.00107839
0.00110271
0.00112721
0.00115191
0.0011768
0.0012019
0.0012272
0.00125271
0.00127842
0.00130434
0.00133047
0.00135679
0.00138332
0.00141004
0.00143696
0.00146406
0.00149134
0.00151879
0.00154642
0.00157419
0.00160212
0.00163018
0.00165837
0.00168667
0.00171508
0.00174358
0.00177216
0.0018008
0.00182948
0.00185821
0.00188695
0.00191569
0.00194442
0.00197311
0.00200176
0.00203032
0.00205879
0.00208714
0.00211533
0.00214332
0.00217108
0.00219855
0.00222568
0.00225242
0.00227871
0.00230462
0.0023302
0.00235547
0.00238038
0.00240493
0.00242909
0.00245283
0.00247612
0.00249894
0.00252126
0.00254306
0.0025643
0.00258497
0.00260502
0.00262443
0.00264317
0.00266121
0.00267853
0.00269509
0.00271088
0.00272585
0.00273999
0.00275327
0.00276567
0.00277717
0.00278775
0.0027974
0.00280611
0.00281406
0.00282125
0.00282669
0.0028311
0.00283508
0.00283792
0.00283971
0.00284048
0.00284024
0.00283902
0.00283683
0.00283369
0.00282963
0.00282469
0.00281889
0.00281227
0.00280487
0.00279674
0.00278792
0.00277847
0.00276846
0.00275794
0.00274697
0.00273562
0.00272393
0.00271198
0.00269983
0.00268755
0.00267519
0.00266284
0.00265054
0.00263836
0.00262637
0.00261462
0.00260318
0.00259209
0.0025814
0.00257115
0.00256138
0.00255211
0.00254333
0.00253503
0.00252714
0.00251938
0.00251107
0.0025025
0.00249381
0.0024851
0.00247659
0.00246784
0.00245905
0.00245016
0.00244078
0.00243063
0.00241927
0.00240553
0.00238505
0.0023416
8.23972e-06
9.05493e-05
0.000185673
0.000261896
0.000320483
0.000365174
0.000399941
0.000427891
0.000451312
0.0004718
0.000490405
0.000507782
0.000524311
0.000540209
0.000555604
0.000570579
0.00058521
0.000599578
0.000613779
0.000627916
0.000642096
0.000656417
0.00067098
0.000685927
0.000701527
0.000718259
0.000736707
0.000757172
0.00077925
0.000802612
0.000827059
0.000852425
0.000878496
0.000905052
0.000931786
0.000958535
0.000985251
0.00101245
0.00103989
0.00106749
0.00109527
0.00112323
0.00115139
0.00117975
0.0012083
0.00123705
0.00126601
0.00129517
0.00132454
0.00135411
0.00138389
0.0014139
0.00144414
0.00147462
0.00150533
0.00153628
0.00156746
0.00159888
0.00163053
0.00166242
0.00169453
0.00172686
0.00175941
0.00179216
0.00182512
0.00185826
0.00189159
0.00192508
0.00195873
0.00199253
0.00202646
0.00206051
0.00209467
0.00212891
0.00216322
0.00219758
0.00223199
0.00226641
0.00230083
0.00233523
0.0023696
0.0024039
0.00243813
0.00247224
0.00250623
0.00254006
0.0025737
0.00260712
0.0026403
0.00267319
0.00270576
0.00273797
0.00276982
0.00280128
0.00283237
0.00286307
0.00289339
0.0029233
0.00295278
0.00298178
0.0030103
0.00303829
0.00306573
0.00309259
0.00311884
0.00314444
0.00316937
0.00319359
0.00321707
0.00323977
0.00326167
0.00328273
0.00330292
0.00332219
0.00334054
0.00335791
0.00337429
0.00338964
0.00340394
0.00341716
0.00342929
0.0034403
0.00345033
0.00345955
0.00346702
0.00347301
0.00347831
0.00348236
0.00348516
0.00348673
0.00348708
0.00348624
0.00348421
0.00348104
0.00347674
0.00347136
0.00346492
0.00345747
0.00344905
0.00343972
0.00342954
0.00341856
0.00340687
0.00339452
0.00338158
0.00336813
0.00335425
0.00334
0.00332546
0.00331072
0.00329585
0.00328093
0.00326604
0.00325126
0.00323667
0.00322234
0.00320833
0.00319473
0.00318159
0.00316896
0.00315689
0.00314541
0.00313454
0.00312426
0.00311452
0.00310513
0.00309571
0.0030863
0.0030769
0.0030675
0.00305828
0.00304898
0.00303962
0.00303012
0.0030202
0.00300958
0.00299787
0.00298391
0.00296382
0.00292407
1.01648e-05
0.000102021
0.000208593
0.000295257
0.000363214
0.000415742
0.000456918
0.000490021
0.000517554
0.000541351
0.000562704
0.000582486
0.000601274
0.000619442
0.00063724
0.000654851
0.000672423
0.0006901
0.00070803
0.000726363
0.000745246
0.000764809
0.000785153
0.000806351
0.000828466
0.000851589
0.00087581
0.000901133
0.000927442
0.000954624
0.000982604
0.00101132
0.00104069
0.00107061
0.00110095
0.00113159
0.00116249
0.0011937
0.00122515
0.0012568
0.00128865
0.0013207
0.00135296
0.00138542
0.00141809
0.00145098
0.00148409
0.00151742
0.00155098
0.00158478
0.00161883
0.00165312
0.00168765
0.00172241
0.00175741
0.00179265
0.00182812
0.00186383
0.00189976
0.00193592
0.0019723
0.00200889
0.00204569
0.00208268
0.00211986
0.00215721
0.00219473
0.0022324
0.00227021
0.00230814
0.00234618
0.00238432
0.00242253
0.00246081
0.00249913
0.00253748
0.00257583
0.00261418
0.00265249
0.00269075
0.00272894
0.00276704
0.00280502
0.00284286
0.00288053
0.00291802
0.00295529
0.00299232
0.00302907
0.00306553
0.00310167
0.00313747
0.00317292
0.00320798
0.00324266
0.00327694
0.00331079
0.00334421
0.00337715
0.00340959
0.00344151
0.00347287
0.00350365
0.00353381
0.00356332
0.00359215
0.00362026
0.00364762
0.00367421
0.00369997
0.00372487
0.00374889
0.00377198
0.00379411
0.00381523
0.00383532
0.00385435
0.00387227
0.00388906
0.00390469
0.00391913
0.00393235
0.00394441
0.0039556
0.00396514
0.00397303
0.00397983
0.00398537
0.00398952
0.00399229
0.00399369
0.00399372
0.00399243
0.00398982
0.00398592
0.00398078
0.00397442
0.00396689
0.00395824
0.00394852
0.0039378
0.00392614
0.00391361
0.00390029
0.00388625
0.00387157
0.00385633
0.00384062
0.00382453
0.00380813
0.00379153
0.00377482
0.00375807
0.00374139
0.00372487
0.00370859
0.00369263
0.00367708
0.00366201
0.0036475
0.00363359
0.00362034
0.00360777
0.00359589
0.00358468
0.00357402
0.00356369
0.00355364
0.00354382
0.00353421
0.00352484
0.00351557
0.00350636
0.00349708
0.00348753
0.00347751
0.00346663
0.00345387
0.00343597
0.00340291
1.19086e-05
0.000111486
0.000227587
0.000323326
0.000399696
0.000459526
0.000506889
0.000545159
0.00057698
0.000604358
0.00062877
0.000651272
0.000672605
0.000693281
0.000713659
0.000733996
0.000754495
0.000775323
0.000796632
0.000818562
0.000841235
0.000864756
0.000889195
0.000914585
0.00094093
0.000968213
0.000996402
0.00102544
0.00105526
0.00108578
0.00111696
0.00114874
0.00118107
0.00121391
0.00124717
0.00128078
0.00131471
0.00134891
0.00138336
0.00141803
0.00145291
0.001488
0.00152329
0.0015588
0.00159451
0.00163044
0.00166659
0.00170296
0.00173956
0.00177639
0.00181345
0.00185075
0.00188828
0.00192603
0.00196402
0.00200223
0.00204067
0.00207934
0.00211821
0.00215731
0.0021966
0.0022361
0.00227578
0.00231564
0.00235568
0.00239587
0.00243621
0.00247668
0.00251727
0.00255797
0.00259875
0.00263962
0.00268054
0.0027215
0.00276249
0.00280348
0.00284447
0.00288542
0.00292632
0.00296715
0.00300789
0.00304852
0.00308901
0.00312935
0.00316951
0.00320947
0.00324921
0.00328869
0.00332791
0.00336683
0.00340545
0.00344372
0.00348165
0.00351921
0.00355639
0.00359316
0.00362951
0.00366541
0.00370083
0.00373576
0.00377016
0.003804
0.00383726
0.00386991
0.0039019
0.00393322
0.00396382
0.00399368
0.00402275
0.00405101
0.0040784
0.0041049
0.00413047
0.00415507
0.00417865
0.00420118
0.00422262
0.00424294
0.00426208
0.00428003
0.00429675
0.00431219
0.00432638
0.00433962
0.00435126
0.00436128
0.00436988
0.00437719
0.00438302
0.00438735
0.00439017
0.00439151
0.00439138
0.00438981
0.00438683
0.00438245
0.00437672
0.00436968
0.00436137
0.00435185
0.00434118
0.00432942
0.00431665
0.00430295
0.00428839
0.00427305
0.00425703
0.00424041
0.00422329
0.00420575
0.00418791
0.00416985
0.00415168
0.00413351
0.00411542
0.00409753
0.00407993
0.00406271
0.00404596
0.00402978
0.00401422
0.00399936
0.00398525
0.00397191
0.00395934
0.00394749
0.00393624
0.00392552
0.00391527
0.00390546
0.00389605
0.00388696
0.0038781
0.00386938
0.00386066
0.00385175
0.00384236
0.00383161
0.00381684
0.00379085
1.34365e-05
0.000119111
0.000243007
0.000346808
0.000430485
0.000497144
0.00055047
0.000593879
0.0006301
0.000661252
0.000688946
0.000714377
0.000738417
0.000761691
0.000784648
0.000807613
0.000830824
0.000854466
0.000878684
0.0009036
0.00092931
0.000955889
0.000983376
0.00101178
0.00104108
0.00107124
0.00110221
0.00113392
0.00116631
0.00119932
0.0012329
0.00126701
0.00130159
0.00133662
0.00137204
0.0014078
0.00144386
0.00148019
0.00151676
0.00155355
0.00159054
0.00162773
0.00166512
0.00170271
0.0017405
0.00177849
0.00181669
0.00185509
0.00189371
0.00193254
0.00197158
0.00201084
0.00205031
0.00209
0.00212989
0.00217
0.00221031
0.00225083
0.00229155
0.00233246
0.00237355
0.00241483
0.00245628
0.0024979
0.00253966
0.00258157
0.00262361
0.00266577
0.00270804
0.0027504
0.00279283
0.00283534
0.00287789
0.00292047
0.00296307
0.00300567
0.00304826
0.0030908
0.0031333
0.00317571
0.00321804
0.00326026
0.00330234
0.00334427
0.00338603
0.0034276
0.00346895
0.00351007
0.00355094
0.00359153
0.00363183
0.00367182
0.00371148
0.00375079
0.00378973
0.00382829
0.00386645
0.00390417
0.00394145
0.00397824
0.00401453
0.0040503
0.0040855
0.00412012
0.00415412
0.00418748
0.00422015
0.0042521
0.00428331
0.00431372
0.00434332
0.00437204
0.00439986
0.00442673
0.00445261
0.00447745
0.00450122
0.00452388
0.00454537
0.00456565
0.0045847
0.00460245
0.00461892
0.00463436
0.00464821
0.00466052
0.00467122
0.00468059
0.0046884
0.0046946
0.00469919
0.00470218
0.0047036
0.00470346
0.00470177
0.00469858
0.00469389
0.00468776
0.00468022
0.00467133
0.00466113
0.00464971
0.00463712
0.00462344
0.00460875
0.00459314
0.00457669
0.0045595
0.00454166
0.00452329
0.00450447
0.00448531
0.00446594
0.00444645
0.00442697
0.00440759
0.00438844
0.00436962
0.00435124
0.0043334
0.00431619
0.00429969
0.00428399
0.00426912
0.00425513
0.00424201
0.0042297
0.00421815
0.00420733
0.00419719
0.00418769
0.00417876
0.00417033
0.00416233
0.00415465
0.00414716
0.00413965
0.00413137
0.00412019
0.00410086
1.47268e-05
0.000125065
0.000255217
0.000365923
0.000456096
0.000529004
0.000587984
0.000636411
0.000677037
0.000712043
0.000743125
0.000771577
0.000798366
0.000824208
0.000849626
0.000875003
0.000900609
0.000926639
0.000953236
0.000980505
0.00100852
0.0010374
0.00106712
0.00109769
0.00112906
0.0011612
0.00119406
0.00122758
0.0012617
0.00129637
0.00133154
0.00136718
0.00140324
0.0014397
0.00147651
0.00151367
0.0015511
0.00158875
0.00162663
0.00166471
0.00170296
0.0017414
0.00178001
0.00181879
0.00185775
0.00189689
0.00193621
0.00197572
0.00201541
0.0020553
0.00209537
0.00213563
0.00217608
0.00221673
0.00225757
0.0022986
0.00233981
0.00238121
0.0024228
0.00246456
0.0025065
0.0025486
0.00259087
0.00263329
0.00267586
0.00271856
0.0027614
0.00280435
0.00284741
0.00289056
0.00293379
0.0029771
0.00302046
0.00306386
0.00310729
0.00315073
0.00319417
0.00323758
0.00328096
0.00332428
0.00336753
0.00341068
0.00345373
0.00349664
0.00353941
0.00358201
0.00362442
0.00366663
0.00370862
0.00375036
0.00379185
0.00383306
0.00387397
0.00391456
0.00395483
0.00399474
0.00403428
0.00407342
0.00411215
0.00415045
0.00418828
0.00422562
0.00426245
0.00429874
0.00433447
0.00436959
0.00440409
0.00443792
0.00447105
0.00450345
0.00453508
0.00456589
0.00459585
0.00462491
0.00465303
0.00468016
0.00470625
0.00473125
0.00475513
0.00477782
0.00479929
0.00481949
0.0048384
0.00485618
0.00487242
0.00488717
0.00490028
0.00491197
0.00492204
0.00493041
0.00493706
0.00494202
0.00494529
0.0049469
0.00494686
0.00494518
0.00494188
0.004937
0.00493057
0.00492263
0.00491324
0.00490246
0.00489036
0.004877
0.00486246
0.00484683
0.0048302
0.00481266
0.00479431
0.00477526
0.00475561
0.00473548
0.00471499
0.00469426
0.00467341
0.00465256
0.00463184
0.00461137
0.00459128
0.00457168
0.0045527
0.00453442
0.00451697
0.00450041
0.00448481
0.00447021
0.00445662
0.00444403
0.00443241
0.00442174
0.004412
0.00440314
0.0043951
0.00438783
0.00438128
0.00437538
0.00436995
0.00436438
0.00435698
0.00434404
1.57691e-05
0.000129492
0.000264484
0.000380952
0.000476819
0.000555379
0.000619628
0.000672848
0.000717765
0.00075658
0.000791034
0.000822479
0.000851952
0.000880227
0.000907887
0.00093542
0.000963091
0.000991092
0.00101956
0.00104858
0.0010782
0.00110858
0.00113973
0.00117163
0.00120426
0.00123757
0.00127153
0.00130608
0.00134118
0.00137677
0.00141282
0.0014493
0.00148616
0.00152337
0.00156091
0.00159875
0.00163673
0.00167495
0.00171337
0.00175194
0.00179065
0.00182949
0.00186847
0.00190758
0.00194684
0.00198624
0.0020258
0.00206551
0.00210538
0.00214541
0.0021856
0.00222597
0.00226651
0.00230721
0.0023481
0.00238916
0.0024304
0.00247182
0.00251341
0.00255518
0.00259712
0.00263924
0.00268152
0.00272397
0.00276657
0.00280933
0.00285223
0.00289527
0.00293843
0.00298172
0.00302511
0.00306861
0.00311218
0.00315584
0.00319955
0.0032433
0.00328709
0.00333089
0.00337469
0.00341847
0.00346221
0.0035059
0.00354952
0.00359305
0.00363647
0.00367977
0.00372292
0.0037659
0.00380871
0.00385131
0.0038937
0.00393585
0.00397774
0.00401936
0.00406069
0.00410171
0.0041424
0.00418274
0.00422271
0.00426229
0.00430146
0.0043402
0.00437848
0.00441627
0.00445356
0.0044903
0.00452649
0.00456207
0.00459702
0.00463131
0.0046649
0.00469774
0.00472979
0.00476101
0.00479135
0.00482077
0.0048492
0.00487661
0.00490293
0.00492813
0.00495213
0.00497489
0.0049964
0.00501667
0.00503548
0.00505284
0.00506864
0.00508289
0.00509551
0.00510631
0.00511529
0.00512248
0.0051279
0.00513155
0.00513344
0.00513357
0.00513195
0.00512861
0.00512358
0.00511689
0.00510858
0.00509871
0.00508734
0.00507454
0.00506037
0.00504494
0.00502831
0.00501058
0.00499186
0.00497226
0.00495188
0.00493085
0.00490929
0.00488733
0.0048651
0.00484273
0.00482038
0.00479817
0.00477624
0.00475474
0.00473381
0.00471357
0.00469416
0.00467569
0.00465827
0.00464196
0.00462684
0.00461293
0.00460026
0.00458883
0.00457865
0.00456969
0.00456192
0.00455534
0.00454992
0.00454564
0.00454237
0.00453962
0.00453604
0.00452906
1.65639e-05
0.000132546
0.000271081
0.000392203
0.000492947
0.000576512
0.000645559
0.000703238
0.000752212
0.000794664
0.000832343
0.000866644
0.000898658
0.000929153
0.000958672
0.000987766
0.00101682
0.00104608
0.00107573
0.00110589
0.00113667
0.00116814
0.00120026
0.001233
0.00126634
0.00130024
0.00133468
0.0013696
0.00140497
0.00144075
0.0014769
0.00151338
0.00155017
0.00158723
0.00162456
0.00166216
0.00170004
0.00173814
0.00177637
0.00181466
0.001853
0.00189141
0.0019299
0.00196846
0.00200713
0.00204591
0.0020848
0.00212382
0.00216298
0.00220227
0.00224171
0.00228131
0.00232107
0.002361
0.0024011
0.00244138
0.00248185
0.00252251
0.00256336
0.00260441
0.00264566
0.00268711
0.00272875
0.0027706
0.00281265
0.00285489
0.00289731
0.00293993
0.00298272
0.00302568
0.00306881
0.00311209
0.00315551
0.00319906
0.00324272
0.00328649
0.00333035
0.00337427
0.00341825
0.00346227
0.00350631
0.00355034
0.00359436
0.00363834
0.00368226
0.00372611
0.00376985
0.00381349
0.00385698
0.00390033
0.00394349
0.00398647
0.00402924
0.00407177
0.00411406
0.00415608
0.00419782
0.00423925
0.00428037
0.00432114
0.00436156
0.00440159
0.00444123
0.00448044
0.0045192
0.00455749
0.00459528
0.00463255
0.00466926
0.00470538
0.00474088
0.00477571
0.00480983
0.0048432
0.00487577
0.00490749
0.0049383
0.00496815
0.00499699
0.00502476
0.0050514
0.00507684
0.00510106
0.005124
0.00514554
0.00516572
0.00518438
0.00520143
0.00521688
0.00523037
0.00524189
0.00525157
0.00525939
0.00526535
0.00526944
0.00527165
0.005272
0.00527048
0.00526711
0.00526192
0.00525495
0.00524624
0.00523584
0.00522382
0.00521024
0.00519519
0.00517874
0.00516099
0.00514204
0.005122
0.00510099
0.00507912
0.00505653
0.00503336
0.00500974
0.00498584
0.00496178
0.00493775
0.00491388
0.00489035
0.00486732
0.00484494
0.00482338
0.00480278
0.0047833
0.00476505
0.00474814
0.00473266
0.00471868
0.00470625
0.00469539
0.00468614
0.00467849
0.00467248
0.00466811
0.00466542
0.00466431
0.00466438
0.00466456
0.00466314
1.71233e-05
0.000134409
0.000275287
0.000399988
0.00050477
0.000592627
0.000665913
0.000727604
0.000780271
0.000826067
0.000866645
0.000903271
0.000937242
0.000969454
0.00100063
0.00103135
0.00106183
0.00109231
0.00112298
0.00115396
0.00118535
0.00121717
0.00124944
0.00128219
0.0013154
0.00134906
0.00138314
0.0014176
0.00145239
0.00148749
0.00152286
0.00155848
0.00159435
0.00163043
0.00166667
0.00170311
0.00173978
0.0017767
0.00181382
0.00185095
0.00188809
0.0019252
0.00196228
0.00199938
0.00203653
0.00207376
0.00211108
0.00214851
0.00218606
0.00222375
0.00226158
0.00229958
0.00233776
0.00237613
0.0024147
0.00245349
0.0024925
0.00253175
0.00257125
0.00261099
0.002651
0.00269128
0.00273182
0.00277263
0.00281372
0.00285508
0.00289671