/*--------------------------------*- C++ -*----------------------------------*\
  =========                 |
  \\      /  F ield         | OpenFOAM: The Open Source CFD Toolbox
   \\    /   O peration     | Website:  https://openfoam.org
    \\  /    A nd           | Version:  13
     \\/     M anipulation  |
\*---------------------------------------------------------------------------*/
FoamFile
{
    format      ascii;
    class       volScalarField;
    location    "200";
    object      p;
}
// * * * * * * * * * * * * * * * * * * * * * * * * * * * * * * * * * * * * * //

dimensions      [0 2 -2 0 0 0 0];

internalField   nonuniform List<scalar> 
12225
(
-2.11294
-4.31027
-5.40092
-5.71391
-5.89327
-6.0629
-6.19534
-6.29137
-6.36863
-6.43648
-6.49679
-6.55183
-6.60167
-6.64795
-6.69087
-6.72611
-6.76726
-6.74077
-5.28206
-6.04804
-6.20697
-6.11189
-6.09708
-6.16346
-6.24004
-6.30523
-6.3646
-6.42203
-6.47673
-6.52772
-6.57566
-6.6207
-6.66377
-6.70097
-6.74472
-6.76761
-5.65405
-5.63425
-5.77162
-5.85548
-5.95265
-6.07423
-6.1824
-6.26781
-6.34005
-6.40572
-6.46606
-6.52111
-6.57232
-6.61999
-6.66561
-6.70686
-6.75398
-6.79361
-5.55013
-5.49613
-5.7411
-5.89786
-5.9971
-6.10195
-6.19899
-6.27858
-6.34707
-6.40999
-6.46846
-6.5224
-6.57295
-6.62043
-6.66623
-6.70957
-6.7569
-6.80405
-5.54212
-5.56579
-5.79401
-5.93449
-6.01698
-6.10871
-6.19994
-6.27764
-6.3452
-6.40745
-6.4656
-6.51961
-6.57041
-6.61849
-6.66512
-6.71039
-6.75831
-6.8085
-5.59919
-5.64656
-5.82107
-5.94497
-6.02605
-6.11369
-6.20171
-6.27819
-6.34514
-6.40685
-6.46464
-6.51859
-6.56948
-6.61794
-6.66507
-6.7114
-6.75944
-6.80988
-5.65896
-5.70221
-5.83772
-5.95417
-6.0375
-6.12134
-6.20517
-6.27974
-6.34579
-6.40678
-6.46406
-6.5178
-6.56866
-6.61731
-6.66469
-6.71147
-6.75923
-6.80863
-5.7123
-5.74942
-5.85952
-5.96782
-6.05045
-6.12976
-6.20907
-6.28149
-6.34649
-6.40669
-6.46336
-6.51681
-6.56754
-6.61622
-6.66363
-6.71039
-6.7575
-6.80532
-5.76192
-5.79474
-5.88564
-5.98356
-6.06336
-6.13848
-6.21353
-6.28359
-6.34735
-6.40661
-6.46257
-6.51558
-6.56605
-6.61456
-6.66173
-6.7081
-6.75426
-6.80029
-5.80887
-5.83792
-5.91335
-6.0005
-6.0765
-6.14783
-6.21882
-6.28625
-6.3485
-6.40667
-6.46177
-6.51416
-6.56419
-6.61231
-6.65901
-6.70468
-6.74969
-6.79389
-5.85309
-5.87845
-5.94155
-6.01864
-6.09015
-6.15779
-6.22489
-6.2895
-6.35002
-6.40693
-6.46102
-6.51263
-6.56202
-6.60954
-6.65555
-6.70031
-6.74403
-6.78648
-5.89104
-5.91329
-5.96738
-6.03612
-6.1031
-6.16732
-6.23103
-6.29299
-6.35174
-6.40737
-6.4604
-6.51115
-6.5598
-6.6066
-6.65181
-6.6956
-6.73809
-6.779
-5.92608
-5.94574
-5.99246
-6.05375
-6.11612
-6.17697
-6.23746
-6.2968
-6.3537
-6.40795
-6.45984
-6.50962
-6.55741
-6.60338
-6.64769
-6.69044
-6.7317
-6.7712
-5.9628
-5.97994
-6.01987
-6.07379
-6.13101
-6.18805
-6.24507
-6.30147
-6.35618
-6.40874
-6.45924
-6.50779
-6.55448
-6.59937
-6.64256
-6.68407
-6.72394
-6.76195
-5.99994
-6.01469
-6.04861
-6.09562
-6.14741
-6.2003
-6.25367
-6.30691
-6.35911
-6.40968
-6.4585
-6.50556
-6.55088
-6.59444
-6.63628
-6.67638
-6.71475
-6.75121
-6.03553
-6.04814
-6.07701
-6.1179
-6.1644
-6.21303
-6.2627
-6.3127
-6.36219
-6.41053
-6.45742
-6.50276
-6.54647
-6.58849
-6.6288
-6.66735
-6.70415
-6.73907
-6.06668
-6.07753
-6.10246
-6.13835
-6.18018
-6.22486
-6.27106
-6.31796
-6.36474
-6.41075
-6.4556
-6.49907
-6.54103
-6.58138
-6.62005
-6.65701
-6.69224
-6.72567
-6.08901
-6.09866
-6.1209
-6.15334
-6.19176
-6.23337
-6.27679
-6.32113
-6.36558
-6.40949
-6.45241
-6.49408
-6.53433
-6.57304
-6.61012
-6.64555
-6.67929
-6.71133
-6.09565
-6.10481
-6.12602
-6.15716
-6.19425
-6.23451
-6.27655
-6.31949
-6.36255
-6.40508
-6.44663
-6.48693
-6.52582
-6.56317
-6.59894
-6.63308
-6.66558
-6.69649
-6.07942
-6.08919
-6.1118
-6.14488
-6.18389
-6.22558
-6.26852
-6.31204
-6.3554
-6.39798
-6.43933
-6.47927
-6.51765
-6.55442
-6.58951
-6.62296
-6.65474
-6.68495
-6.05249
-6.06329
-6.08857
-6.12562
-6.16841
-6.21291
-6.25798
-6.3032
-6.34783
-6.39118
-6.43297
-6.47308
-6.51148
-6.54812
-6.583
-6.61615
-6.64762
-6.67748
-6.01722
-6.02904
-6.05841
-6.10205
-6.15035
-6.19832
-6.24611
-6.29382
-6.34037
-6.38495
-6.42748
-6.46805
-6.50669
-6.54339
-6.5782
-6.61122
-6.6425
-6.67215
-5.97663
-5.98849
-6.02303
-6.07643
-6.13197
-6.18384
-6.23468
-6.28512
-6.33366
-6.37955
-6.42298
-6.46419
-6.50321
-6.5401
-6.57496
-6.60795
-6.63914
-6.6687
-5.93292
-5.94368
-5.98561
-6.05039
-6.11262
-6.16913
-6.22462
-6.27842
-6.32866
-6.37548
-6.41961
-6.46132
-6.50061
-6.5376
-6.57247
-6.60541
-6.63653
-6.66597
-5.88616
-5.89117
-5.95381
-6.03239
-6.09449
-6.15278
-6.21395
-6.27231
-6.32481
-6.37284
-6.41785
-6.46011
-6.49965
-6.5367
-6.57152
-6.60436
-6.63537
-6.66475
-5.84302
-5.80678
-5.91663
-6.02702
-6.08835
-6.14332
-6.20567
-6.2656
-6.31896
-6.36779
-6.41362
-6.45653
-6.49649
-6.5338
-6.56879
-6.60173
-6.63282
-6.66223
-5.85576
-5.69818
-5.8325
-5.98773
-6.07595
-6.14562
-6.21358
-6.27387
-6.32619
-6.37412
-6.41916
-6.46124
-6.50039
-6.53696
-6.57126
-6.60359
-6.63417
-6.66325
-5.97226
-5.77847
-5.79842
-5.87697
-5.96835
-6.06918
-6.16099
-6.23559
-6.29789
-6.35348
-6.40414
-6.45018
-6.49219
-6.53083
-6.56664
-6.60007
-6.63158
-6.66183
-5.70369
-6.289
-6.37426
-6.24752
-6.19163
-6.21764
-6.26361
-6.30603
-6.34707
-6.38898
-6.43037
-6.46968
-6.50667
-6.54148
-6.57412
-6.60477
-6.63359
-6.66233
-2.69544
-4.47708
-5.47405
-5.7639
-5.9103
-6.05432
-6.16928
-6.25098
-6.31579
-6.37315
-6.42477
-6.47106
-6.51291
-6.55126
-6.58663
-6.61882
-6.6477
-6.6715
-7.56716
-7.56718
-7.5677
-7.56885
-7.57044
-7.57243
-7.5748
-7.57753
-7.58063
-7.58413
-7.58806
-7.59246
-7.59738
-7.60286
-7.60894
-7.61566
-7.62306
-7.63123
-7.64026
-7.65035
-7.66163
-7.67426
-7.68824
-7.70325
-7.71838
-7.73332
-7.74879
-7.76573
-7.78516
-7.80686
-7.82945
-7.85237
-7.87506
-7.89891
-7.92178
-7.94096
-7.95971
-7.98131
-8.00546
-8.03061
-8.05675
-8.08359
-8.11098
-8.13879
-8.1669
-8.19525
-8.22371
-8.25223
-8.28071
-8.30909
-8.33725
-8.36515
-8.39266
-8.41971
-8.44618
-8.47199
-8.497
-8.52114
-8.54423
-8.56619
-8.58684
-8.60609
-8.62373
-8.63966
-8.65367
-8.66563
-8.67533
-8.68262
-8.68726
-8.68912
-8.68794
-8.68357
-8.67575
-8.66431
-8.64898
-8.62961
-8.60592
-8.57772
-8.54474
-8.50681
-8.46366
-8.4151
-8.36087
-8.3008
-8.23463
-8.16219
-8.08325
-7.99764
-7.90518
-7.8058
-7.69949
-7.5863
-7.46605
-7.33827
-7.20251
-7.05877
-6.90719
-6.7478
-6.58064
-6.40575
-6.22316
-6.03295
-5.83519
-5.63003
-5.41762
-5.19814
-4.9718
-4.73886
-4.49958
-4.25425
-4.00321
-3.74681
-3.48541
-3.21942
-2.94925
-2.67533
-2.39814
-2.11812
-1.83572
-1.55141
-1.26565
-0.978929
-0.69173
-0.404533
-0.117799
0.168041
0.452576
0.73539
1.0161
1.29434
1.56978
1.84207
2.11098
2.37622
2.63762
2.89496
3.14814
3.39708
3.64175
3.88209
4.11808
4.34977
4.57724
4.80066
5.02017
5.23598
5.44832
5.65745
5.86364
6.06721
6.2685
6.46786
6.66568
6.86236
7.05831
7.25397
7.4498
7.64624
7.84375
8.0428
8.24382
8.44726
8.65352
8.86295
9.07592
9.29287
9.51391
9.73868
9.96682
10.1983
10.433
10.6707
10.9108
11.1526
11.3955
11.6386
11.8821
12.1255
12.3815
12.64
-7.56513
-7.56559
-7.56641
-7.56732
-7.56813
-7.56899
-7.57016
-7.57176
-7.57386
-7.57649
-7.57964
-7.58333
-7.58758
-7.5924
-7.59782
-7.60388
-7.6106
-7.61802
-7.62622
-7.63522
-7.64501
-7.65559
-7.66693
-7.67879
-7.69151
-7.70593
-7.7219
-7.73915
-7.75651
-7.77256
-7.78815
-7.80423
-7.82285
-7.8427
-7.86467
-7.89208
-7.92306
-7.95278
-7.97993
-8.00678
-8.03371
-8.0609
-8.08837
-8.11611
-8.14407
-8.17219
-8.20042
-8.22868
-8.2569
-8.28502
-8.31294
-8.3406
-8.3679
-8.39475
-8.42106
-8.44673
-8.47165
-8.4957
-8.51876
-8.54072
-8.56143
-8.58075
-8.59853
-8.61463
-8.62887
-8.6411
-8.65112
-8.65879
-8.66388
-8.66622
-8.6656
-8.66183
-8.65468
-8.64397
-8.62946
-8.61095
-8.5882
-8.561
-8.52911
-8.49233
-8.45042
-8.40318
-8.35037
-8.2918
-8.22725
-8.15653
-8.07942
-7.99575
-7.90532
-7.80799
-7.70361
-7.59195
-7.47274
-7.34592
-7.21161
-7.06976
-6.92024
-6.76301
-6.59805
-6.42535
-6.24498
-6.05698
-5.86144
-5.65848
-5.44825
-5.23092
-5.0067
-4.77581
-4.53853
-4.29514
-4.04596
-3.79133
-3.53162
-3.26721
-2.99851
-2.72596
-2.45
-2.17109
-1.88967
-1.60622
-1.32119
-1.03507
-0.74834
-0.461467
-0.174924
0.110859
0.395463
0.678485
0.959523
1.23822
1.51422
1.7872
2.05688
2.32301
2.58536
2.84375
3.09803
3.34813
3.594
3.83557
4.0728
4.30573
4.53443
4.75906
4.97974
5.19669
5.41011
5.62025
5.82738
6.03182
6.23387
6.43391
6.6323
6.82943
7.02572
7.2216
7.4175
7.61388
7.8112
8.0099
8.21043
8.41323
8.61877
8.82739
9.03937
9.2551
9.47468
9.69778
9.92422
10.154
10.3871
10.6232
10.8617
11.1023
11.3442
11.5868
11.8309
12.0755
12.3355
12.5877
-7.55918
-7.56071
-7.56297
-7.56474
-7.56583
-7.56665
-7.5676
-7.56887
-7.57059
-7.57283
-7.57562
-7.57897
-7.58292
-7.58747
-7.59265
-7.59852
-7.60508
-7.61241
-7.62053
-7.62948
-7.63922
-7.64971
-7.66084
-7.6725
-7.68487
-7.69847
-7.71358
-7.73017
-7.74774
-7.76564
-7.78382
-7.80238
-7.82151
-7.84107
-7.86164
-7.88478
-7.91015
-7.93632
-7.96247
-7.98882
-8.0154
-8.04224
-8.06931
-8.0966
-8.12407
-8.15169
-8.1794
-8.20714
-8.23485
-8.26248
-8.28992
-8.31713
-8.34401
-8.37047
-8.39642
-8.42176
-8.44639
-8.4702
-8.49306
-8.51485
-8.53544
-8.55469
-8.57246
-8.58859
-8.60292
-8.61529
-8.62552
-8.63344
-8.63885
-8.64158
-8.64142
-8.63817
-8.63162
-8.62157
-8.6078
-8.5901
-8.56824
-8.542
-8.51116
-8.47551
-8.43481
-8.38885
-8.33741
-8.28028
-8.21726
-8.14813
-8.07271
-7.9908
-7.90221
-7.8068
-7.7044
-7.59477
-7.47769
-7.3531
-7.22103
-7.08146
-6.93431
-6.7795
-6.61701
-6.44683
-6.26899
-6.08354
-5.89055
-5.69014
-5.48245
-5.26763
-5.04589
-4.81745
-4.58256
-4.3415
-4.09457
-3.84212
-3.5845
-3.32208
-3.05527
-2.78449
-2.51018
-2.23279
-1.95276
-1.67056
-1.38665
-1.10152
-0.815647
-0.52948
-0.24348
0.0418997
0.326234
0.609134
0.890188
1.16904
1.44532
1.71873
1.98894
2.25572
2.51881
2.77803
3.03322
3.2843
3.53119
3.77382
4.01214
4.24617
4.47599
4.7017
4.92346
5.14141
5.35579
5.5668
5.77473
5.97986
6.18251
6.38299
6.58171
6.77902
6.97534
7.17107
7.36666
7.56252
7.75914
7.95698
8.15646
8.358
8.5621
8.76917
8.9795
9.19338
9.41095
9.63205
9.85658
10.0846
10.3159
10.5503
10.7874
11.0268
11.268
11.5105
11.7556
12.0013
12.2636
12.5008
-7.55029
-7.5531
-7.55743
-7.56079
-7.56289
-7.56438
-7.5657
-7.56714
-7.56887
-7.57101
-7.57364
-7.57682
-7.58057
-7.58493
-7.58992
-7.59557
-7.60193
-7.60903
-7.61693
-7.62564
-7.63517
-7.64549
-7.6565
-7.66815
-7.68048
-7.69367
-7.70794
-7.72339
-7.73993
-7.75743
-7.77586
-7.7952
-7.81535
-7.8362
-7.8578
-7.88053
-7.90435
-7.92894
-7.95403
-7.97957
-8.00548
-8.03172
-8.05824
-8.08501
-8.11199
-8.13912
-8.16635
-8.19364
-8.22092
-8.24813
-8.27519
-8.30204
-8.32858
-8.35475
-8.38043
-8.40555
-8.42999
-8.45364
-8.47639
-8.49812
-8.51868
-8.53795
-8.55578
-8.57202
-8.5865
-8.59908
-8.60956
-8.61779
-8.62356
-8.6267
-8.627
-8.62427
-8.6183
-8.60888
-8.5958
-8.57885
-8.5578
-8.53243
-8.50252
-8.46785
-8.4282
-8.38335
-8.33307
-8.27716
-8.2154
-8.1476
-8.07354
-7.99304
-7.90591
-7.81198
-7.7111
-7.60306
-7.4877
-7.36491
-7.23468
-7.09694
-6.95163
-6.79869
-6.6381
-6.46983
-6.29391
-6.11039
-5.91933
-5.72084
-5.51505
-5.30212
-5.08223
-4.8556
-4.62249
-4.38315
-4.13788
-3.88703
-3.63093
-3.36996
-3.10451
-2.83501
-2.56188
-2.28557
-2.00652
-1.7252
-1.44206
-1.1576
-0.872296
-0.586598
-0.300938
-0.0157825
0.268437
0.551326
0.832484
1.11154
1.38814
1.66196
1.93268
2.20005
2.46381
2.72379
2.97981
3.23177
3.47957
3.72314
3.96243
4.19745
4.42828
4.65499
4.87774
5.09665
5.31195
5.52383
5.73257
5.93842
6.14171
6.34275
6.54191
6.73953
6.93602
7.13178
7.32726
7.52285
7.71899
7.91616
8.11481
8.31534
8.51819
8.72373
8.93227
9.14412
9.35945
9.57827
9.8006
10.0264
10.2556
10.4881
10.7233
10.961
11.2009
11.4424
11.6868
11.9315
12.1913
12.4133
-7.54073
-7.54483
-7.55139
-7.55657
-7.55998
-7.56245
-7.56451
-7.56647
-7.56856
-7.57094
-7.57373
-7.57701
-7.58084
-7.58526
-7.59031
-7.59602
-7.60243
-7.60957
-7.61749
-7.62623
-7.63578
-7.64616
-7.65733
-7.66928
-7.68198
-7.6955
-7.7099
-7.7252
-7.74142
-7.75855
-7.7766
-7.79563
-7.81561
-7.8365
-7.85825
-7.88086
-7.90424
-7.92824
-7.95275
-7.97771
-8.00308
-8.02881
-8.05485
-8.08116
-8.1077
-8.13441
-8.16125
-8.18817
-8.2151
-8.24198
-8.26874
-8.29532
-8.32162
-8.34757
-8.37307
-8.39804
-8.42236
-8.44593
-8.46863
-8.49033
-8.51092
-8.53024
-8.54816
-8.56453
-8.57919
-8.59197
-8.6027
-8.61121
-8.61731
-8.62081
-8.62152
-8.61924
-8.61376
-8.60487
-8.59236
-8.57602
-8.55562
-8.53095
-8.50178
-8.46788
-8.42905
-8.38505
-8.33567
-8.28069
-8.2199
-8.15309
-8.08006
-8.00062
-7.91456
-7.82175
-7.72199
-7.61514
-7.50102
-7.37953
-7.25059
-7.11414
-6.97011
-6.81846
-6.65914
-6.49214
-6.31749
-6.13522
-5.9454
-5.74813
-5.54354
-5.33177
-5.11302
-4.8875
-4.65544
-4.41711
-4.17282
-3.92287
-3.66763
-3.40745
-3.14275
-2.87392
-2.6014
-2.32563
-2.04705
-1.76613
-1.48334
-1.19915
-0.914065
-0.628531
-0.342966
-0.0578303
0.226443
0.509436
0.790773
1.07006
1.34695
1.6211
1.89222
2.16001
2.42426
2.68474
2.94131
3.19383
3.44219
3.68633
3.92618
4.16178
4.39316
4.62045
4.84371
5.06315
5.27891
5.49124
5.70036
5.90657
6.11012
6.31138
6.51065
6.70835
6.9048
7.10042
7.29562
7.49085
7.68651
7.88306
8.0809
8.28047
8.48218
8.6864
8.89345
9.10363
9.31713
9.53406
9.75451
9.9785
10.2059
10.4366
10.6703
10.9065
11.1451
11.3854
11.6283
11.8707
12.1259
12.3348
-7.53241
-7.53773
-7.54621
-7.55307
-7.55779
-7.56134
-7.56428
-7.56695
-7.5696
-7.57243
-7.57559
-7.57918
-7.58328
-7.58796
-7.59324
-7.59919
-7.60582
-7.6132
-7.62133
-7.63026
-7.64001
-7.65059
-7.66199
-7.67421
-7.68725
-7.70112
-7.71582
-7.73136
-7.74772
-7.76491
-7.78292
-7.80178
-7.8215
-7.84208
-7.86347
-7.88566
-7.90854
-7.93204
-7.95608
-7.98058
-8.0055
-8.03081
-8.05645
-8.08238
-8.10856
-8.13494
-8.16147
-8.18809
-8.21476
-8.2414
-8.26795
-8.29434
-8.32048
-8.3463
-8.3717
-8.3966
-8.42088
-8.44444
-8.46716
-8.48892
-8.50958
-8.52902
-8.54709
-8.56363
-8.57849
-8.59151
-8.60251
-8.61131
-8.61774
-8.62159
-8.62269
-8.62082
-8.61578
-8.60736
-8.59535
-8.57954
-8.5597
-8.53561
-8.50704
-8.47379
-8.43561
-8.39229
-8.34362
-8.28936
-8.22932
-8.16327
-8.09103
-8.01238
-7.92714
-7.83513
-7.73622
-7.63021
-7.51696
-7.39636
-7.26831
-7.13273
-6.98957
-6.83875
-6.68026
-6.51407
-6.3402
-6.15869
-5.96961
-5.77305
-5.56914
-5.35803
-5.1399
-4.91495
-4.68342
-4.44559
-4.20174
-3.9522
-3.69732
-3.43746
-3.17302
-2.90441
-2.63207
-2.35643
-2.07794
-1.79706
-1.51428
-1.23007
-0.944933
-0.659317
-0.373652
-0.0883721
0.196074
0.479275
0.760839
1.04038
1.31755
1.59199
1.8634
2.1315
2.39604
2.65684
2.9137
3.1665
3.41512
3.65949
3.89954
4.13533
4.36687
4.59427
4.81763
5.03711
5.25287
5.46514
5.67416
5.88022
6.08357
6.28455
6.48348
6.68075
6.87671
7.07178
7.26635
7.46085
7.6557
7.85134
8.0482
8.2467
8.44724
8.65021
8.85594
9.0647
9.27672
9.49215
9.71113
9.9337
10.1598
10.3892
10.6217
10.8569
11.0944
11.3336
11.5751
11.8149
12.0656
12.2632
-7.5267
-7.53301
-7.54296
-7.55118
-7.55707
-7.56163
-7.56545
-7.56887
-7.57217
-7.57555
-7.57919
-7.5832
-7.58769
-7.59272
-7.59835
-7.60463
-7.61159
-7.61927
-7.62771
-7.63692
-7.64693
-7.65776
-7.6694
-7.68186
-7.69513
-7.70923
-7.72412
-7.73983
-7.75633
-7.77361
-7.79166
-7.8105
-7.83011
-7.85048
-7.8716
-7.89343
-7.91592
-7.93902
-7.96266
-7.98679
-8.01136
-8.03633
-8.06165
-8.08729
-8.11319
-8.13933
-8.16563
-8.19206
-8.21855
-8.24504
-8.27147
-8.29776
-8.32384
-8.34962
-8.37501
-8.39992
-8.42424
-8.44786
-8.47068
-8.49255
-8.51336
-8.53297
-8.55123
-8.56799
-8.58309
-8.59637
-8.60765
-8.61676
-8.62351
-8.62771
-8.62917
-8.62769
-8.62305
-8.61505
-8.60348
-8.58812
-8.56875
-8.54514
-8.51707
-8.48432
-8.44667
-8.40388
-8.35575
-8.30204
-8.24256
-8.17708
-8.1054
-8.02733
-7.94266
-7.85124
-7.75289
-7.64746
-7.53479
-7.41476
-7.28728
-7.15225
-7.0096
-6.85929
-6.70127
-6.53552
-6.36207
-6.18096
-5.99224
-5.79601
-5.5924
-5.38155
-5.16364
-4.93888
-4.7075
-4.46978
-4.226
-3.9765
-3.7216
-3.46171
-3.19719
-2.92848
-2.656
-2.38019
-2.1015
-1.82042
-1.53742
-1.25298
-0.967592
-0.68172
-0.395809
-0.110275
0.174432
0.457909
0.739744
1.01957
1.297
1.5717
1.84334
2.11167
2.37641
2.63738
2.89439
3.14729
3.39598
3.64035
3.88039
4.11609
4.34752
4.57474
4.7979
5.01709
5.23254
5.44441
5.65299
5.8585
6.06127
6.26158
6.45981
6.65627
6.85138
7.0455
7.23908
7.43251
7.62624
7.8207
8.01634
8.21356
8.41281
8.61444
8.8188
9.0262
9.23687
9.45099
9.66873
9.89015
10.1152
10.3437
10.5753
10.8097
11.0464
11.2848
11.5249
11.7622
12.009
12.1971
-7.52435
-7.53134
-7.54225
-7.55145
-7.55827
-7.56369
-7.5683
-7.57242
-7.57634
-7.58029
-7.58444
-7.58892
-7.59383
-7.59927
-7.60527
-7.61191
-7.61922
-7.62723
-7.63598
-7.64549
-7.65577
-7.66684
-7.67871
-7.69137
-7.70483
-7.71908
-7.7341
-7.74991
-7.76647
-7.78379
-7.80185
-7.82066
-7.84018
-7.86043
-7.88136
-7.90296
-7.92518
-7.948
-7.97135
-7.99521
-8.01952
-8.04425
-8.06935
-8.0948
-8.12053
-8.14651
-8.17269
-8.19901
-8.22543
-8.25187
-8.27827
-8.30456
-8.33065
-8.35648
-8.38194
-8.40694
-8.43137
-8.45513
-8.4781
-8.50016
-8.52116
-8.54098
-8.55947
-8.57648
-8.59185
-8.6054
-8.61698
-8.62639
-8.63346
-8.63799
-8.63979
-8.63865
-8.63437
-8.62674
-8.61554
-8.60055
-8.58156
-8.55834
-8.53067
-8.49831
-8.46105
-8.41866
-8.37093
-8.31762
-8.25852
-8.19343
-8.12214
-8.04445
-7.96015
-7.86908
-7.77109
-7.666
-7.55366
-7.43395
-7.30676
-7.17201
-7.02961
-6.87951
-6.72167
-6.55608
-6.38276
-6.20174
-6.01308
-5.81688
-5.61326
-5.40236
-5.18437
-4.95949
-4.72797
-4.49006
-4.24607
-3.99631
-3.74115
-3.48094
-3.21611
-2.94704
-2.67419
-2.398
-2.11893
-1.83746
-1.55408
-1.26926
-0.983498
-0.697264
-0.411017
-0.125175
0.159841
0.443611
0.725738
1.00583
1.2835
1.55841
1.83023
2.0987
2.36356
2.62459
2.88161
3.13447
3.38306
3.6273
3.86716
4.10263
4.33377
4.56064
4.78338
5.00209
5.217
5.42826
5.63617
5.84094
6.04289
6.24232
6.43959
6.63503
6.82905
7.02202
7.21438
7.40655
7.59896
7.79207
7.9863
8.18211
8.37992
8.58011
8.78306
8.98907
9.1984
9.41128
9.62786
9.84823
10.0723
10.3
10.5309
10.7647
11.0008
11.2383
11.4771
11.7122
11.9556
12.1363
-7.52559
-7.53294
-7.54431
-7.5541
-7.56156
-7.56763
-7.57287
-7.57759
-7.58206
-7.58652
-7.59113
-7.59605
-7.60137
-7.60717
-7.61354
-7.62051
-7.62813
-7.63644
-7.64546
-7.65522
-7.66573
-7.677
-7.68905
-7.70187
-7.71546
-7.72982
-7.74493
-7.7608
-7.77739
-7.79473
-7.81278
-7.83154
-7.851
-7.87115
-7.89195
-7.9134
-7.93546
-7.9581
-7.98128
-8.00496
-8.02912
-8.05371
-8.07869
-8.10403
-8.12969
-8.15561
-8.18176
-8.20807
-8.2345
-8.26097
-8.28743
-8.3138
-8.33999
-8.36594
-8.39154
-8.4167
-8.44131
-8.46526
-8.48844
-8.51071
-8.53195
-8.55202
-8.57077
-8.58804
-8.60368
-8.61751
-8.62938
-8.63908
-8.64644
-8.65127
-8.65337
-8.65253
-8.64856
-8.64122
-8.63032
-8.61564
-8.59694
-8.57401
-8.54662
-8.51455
-8.47756
-8.43544
-8.38797
-8.33491
-8.27606
-8.2112
-8.14012
-8.06263
-7.97852
-7.88763
-7.78979
-7.68484
-7.57262
-7.45302
-7.3259
-7.19119
-7.04881
-6.89869
-6.7408
-6.57514
-6.4017
-6.22053
-6.03169
-5.83527
-5.6314
-5.42021
-5.20191
-4.97667
-4.74477
-4.50644
-4.26201
-4.01179
-3.75614
-3.49544
-3.23009
-2.9605
-2.68712
-2.41039
-2.13081
-1.84883
-1.56497
-1.27969
-0.993485
-0.70684
-0.420228
-0.134061
0.15126
0.435306
0.717695
0.997998
1.27585
1.55088
1.82279
2.09129
2.35615
2.61713
2.87404
3.12673
3.37507
3.61902
3.85852
4.0936
4.32425
4.55061
4.77273
4.99081
5.20496
5.41545
5.62248
5.82634
6.0273
6.22569
6.42183
6.61612
6.80891
7.00061
7.19165
7.38245
7.57346
7.76513
7.95791
8.15225
8.34858
8.54733
8.74885
8.9535
9.16156
9.37326
9.58878
9.80821
10.0315
10.2585
10.4888
10.7221
10.9576
11.1943
11.4319
11.665
11.9058
12.0806
-7.53026
-7.53768
-7.54906
-7.55905
-7.56687
-7.57336
-7.57903
-7.5842
-7.5891
-7.59396
-7.59896
-7.60423
-7.60988
-7.616
-7.62264
-7.62988
-7.63775
-7.64629
-7.65552
-7.66546
-7.67614
-7.68756
-7.69972
-7.71264
-7.72631
-7.74074
-7.75589
-7.77179
-7.78841
-7.80574
-7.82378
-7.84252
-7.86193
-7.88202
-7.90275
-7.92413
-7.9461
-7.96865
-7.99174
-8.01535
-8.03944
-8.06399
-8.08894
-8.11427
-8.13994
-8.1659
-8.19209
-8.21848
-8.245
-8.27159
-8.29818
-8.3247
-8.35106
-8.37719
-8.40298
-8.42835
-8.45318
-8.47736
-8.50078
-8.5233
-8.54479
-8.56511
-8.58412
-8.60165
-8.61755
-8.63164
-8.64376
-8.65372
-8.66134
-8.66641
-8.66875
-8.66815
-8.6644
-8.6573
-8.64661
-8.63213
-8.61363
-8.59088
-8.56367
-8.53176
-8.49493
-8.45295
-8.4056
-8.35266
-8.2939
-8.22912
-8.15812
-8.08067
-7.9966
-7.90571
-7.80786
-7.70288
-7.59061
-7.47091
-7.34369
-7.20884
-7.06628
-6.91596
-6.75784
-6.5919
-6.41816
-6.23665
-6.04744
-5.85062
-5.6463
-5.43465
-5.21584
-4.99008
-4.75761
-4.51871
-4.27367
-4.02283
-3.76655
-3.50521
-3.23921
-2.96898
-2.69496
-2.41761
-2.13742
-1.85488
-1.57048
-1.28471
-0.99804
-0.710981
-0.424009
-0.13753
0.148054
0.432333
0.714918
0.995389
1.27334
1.54842
1.82032
2.08876
2.35349
2.61428
2.87093
3.12329
3.37124
3.61473
3.8537
4.08818
4.31818
4.5438
4.76514
4.98235
5.19559
5.40511
5.61111
5.81388
6.01371
6.21091
6.40583
6.59883
6.79029
6.98063
7.17027
7.35965
7.54921
7.73941
7.93072
8.12358
8.31847
8.51578
8.71594
8.91929
9.12614
9.33675
9.55131
9.76991
9.99251
10.2189
10.4488
10.6815
10.9166
11.1526
11.3891
11.6204
11.859
12.0295
-7.53796
-7.54518
-7.5562
-7.56604
-7.57393
-7.5806
-7.58652
-7.59195
-7.59713
-7.60227
-7.60753
-7.61305
-7.61893
-7.62527
-7.63211
-7.63953
-7.64755
-7.65623
-7.66558
-7.67563
-7.6864
-7.69789
-7.71012
-7.72309
-7.73679
-7.75123
-7.76641
-7.78231
-7.79893
-7.81627
-7.8343
-7.85303
-7.87243
-7.8925
-7.91322
-7.93458
-7.95653
-7.97908
-8.00217
-8.02579
-8.0499
-8.07449
-8.0995
-8.1249
-8.15066
-8.17673
-8.20305
-8.22959
-8.25626
-8.28302
-8.3098
-8.33652
-8.36309
-8.38944
-8.41546
-8.44106
-8.46613
-8.49055
-8.51421
-8.53697
-8.5587
-8.57925
-8.59849
-8.61625
-8.63236
-8.64667
-8.65899
-8.66914
-8.67693
-8.68218
-8.68468
-8.68422
-8.68061
-8.67363
-8.66305
-8.64867
-8.63025
-8.60758
-8.58042
-8.54856
-8.51175
-8.46979
-8.42243
-8.36947
-8.31068
-8.24585
-8.17477
-8.09723
-8.01304
-7.92203
-7.82403
-7.71886
-7.60639
-7.48646
-7.35898
-7.22384
-7.08097
-6.9303
-6.77179
-6.60544
-6.43125
-6.24926
-6.05953
-5.86217
-5.65728
-5.44503
-5.22558
-4.99917
-4.76603
-4.52644
-4.28069
-4.02914
-3.77214
-3.51008
-3.24336
-2.97242
-2.6977
-2.4197
-2.13889
-1.85577
-1.57082
-1.28454
-0.997417
-0.709965
-0.422649
-0.135882
0.149921
0.434376
0.717083
0.997636
1.27559
1.55062
1.82239
2.09064
2.35509
2.61552
2.87173
3.12357
3.37094
3.61376
3.85202
4.08569
4.31484
4.53952
4.75989
4.97604
5.18821
5.39656
5.60138
5.80291
6.00146
6.19733
6.3909
6.58251
6.77257
6.96147
7.14966
7.33756
7.52565
7.71438
7.90423
8.09566
8.28914
8.48511
8.68398
8.88613
9.0919
9.30154
9.51527
9.73318
9.95522
10.1812
10.4107
10.6431
10.8777
11.1132
11.3488
11.5786
11.8155
11.9827
-7.54813
-7.55493
-7.56528
-7.57468
-7.58238
-7.589
-7.59496
-7.60047
-7.60577
-7.61104
-7.61643
-7.62208
-7.62807
-7.6345
-7.64143
-7.64892
-7.657
-7.66573
-7.67511
-7.68519
-7.69597
-7.70747
-7.7197
-7.73267
-7.74638
-7.76082
-7.77599
-7.7919
-7.80852
-7.82587
-7.84391
-7.86266
-7.88208
-7.90218
-7.92293
-7.94432
-7.96631
-7.98891
-8.01206
-8.03577
-8.05998
-8.08468
-8.10982
-8.13537
-8.16128
-8.18751
-8.21402
-8.24074
-8.26761
-8.29458
-8.32157
-8.3485
-8.3753
-8.40187
-8.42812
-8.45394
-8.47923
-8.50386
-8.52772
-8.55068
-8.57259
-8.59333
-8.61272
-8.63063
-8.64688
-8.66131
-8.67373
-8.68398
-8.69185
-8.69716
-8.69971
-8.69929
-8.69569
-8.68871
-8.67813
-8.66372
-8.64526
-8.62254
-8.59531
-8.56336
-8.52646
-8.48438
-8.4369
-8.3838
-8.32485
-8.25984
-8.18856
-8.11081
-8.02639
-7.93512
-7.83685
-7.7314
-7.6186
-7.49833
-7.37048
-7.23494
-7.09164
-6.94051
-6.78152
-6.61465
-6.43992
-6.25736
-6.06704
-5.86904
-5.6635
-5.45057
-5.23043
-5.00329
-4.76942
-4.52909
-4.2826
-4.03029
-3.77254
-3.50972
-3.24226
-2.97059
-2.69518
-2.41651
-2.13507
-1.85136
-1.56587
-1.27911
-0.991574
-0.703766
-0.416146
-0.129154
0.156794
0.441316
0.724034
1.00453
1.28236
1.55718
1.82866
2.09653
2.36052
2.62041
2.87599
3.12713
3.37373
3.6157
3.85304
4.08573
4.31383
4.53741
4.7566
4.97155
5.18244
5.3895
5.59297
5.79312
5.99025
6.18469
6.3768
6.56693
6.75549
6.9429
7.12958
7.31599
7.50259
7.68985
7.87826
8.0683
8.26043
8.45513
8.6528
8.85387
9.05865
9.26746
9.48048
9.69783
9.91943
10.1451
10.3743
10.6065
10.8409
11.0759
11.3107
11.5393
11.7748
11.9398
-7.56011
-7.56636
-7.5758
-7.58453
-7.59182
-7.59818
-7.60397
-7.60939
-7.61463
-7.61986
-7.62522
-7.63084
-7.63681
-7.64321
-7.65011
-7.65756
-7.66561
-7.67429
-7.68364
-7.69367
-7.70442
-7.71588
-7.72808
-7.74102
-7.7547
-7.76913
-7.7843
-7.80021
-7.81684
-7.83421
-7.85228
-7.87107
-7.89053
-7.91068
-7.93148
-7.95293
-7.97501
-7.9977
-8.02098
-8.04483
-8.06919
-8.09406
-8.11937
-8.1451
-8.1712
-8.19763
-8.22432
-8.25124
-8.27831
-8.30548
-8.33266
-8.35979
-8.38678
-8.41353
-8.43995
-8.46593
-8.49136
-8.51613
-8.54011
-8.56316
-8.58516
-8.60596
-8.6254
-8.64334
-8.6596
-8.67402
-8.68642
-8.69662
-8.70444
-8.70967
-8.71213
-8.71161
-8.70789
-8.70078
-8.69005
-8.67548
-8.65685
-8.63394
-8.60652
-8.57437
-8.53725
-8.49494
-8.44722
-8.39386
-8.33464
-8.26935
-8.19778
-8.11972
-8.03497
-7.94337
-7.84473
-7.7389
-7.62571
-7.50503
-7.37673
-7.24074
-7.09695
-6.94532
-6.7858
-6.61838
-6.44307
-6.25991
-6.06896
-5.87031
-5.6641
-5.45047
-5.22961
-5.00175
-4.76713
-4.52604
-4.27879
-4.02572
-3.7672
-3.50363
-3.23544
-2.96306
-2.68697
-2.40766
-2.12563
-1.84138
-1.55543
-1.26826
-0.980403
-0.692327
-0.404512
-0.117427
0.168523
0.452958
0.735523
1.01578
1.29332
1.56775
1.83876
2.10606
2.36939
2.62853
2.88328
3.13353
3.37915
3.62009
3.8563
4.08783
4.31468
4.53698
4.75482
4.96839
5.17785
5.38346
5.58543
5.78408
5.97969
6.1726
6.36315
6.55173
6.73874
6.92461
7.10976
7.29467
7.4798
7.66563
7.85266
8.04137
8.23225
8.42576
8.62237
8.82248
9.02644
9.23455
9.44704
9.66397
9.8853
10.1107
10.3399
10.572
10.8062
11.0408
11.2751
11.5028
11.7371
11.9007
-7.57331
-7.57889
-7.58729
-7.59517
-7.60187
-7.60778
-7.6132
-7.61832
-7.62331
-7.62832
-7.63349
-7.63893
-7.64474
-7.65099
-7.65774
-7.66506
-7.67299
-7.68156
-7.6908
-7.70075
-7.7114
-7.7228
-7.73493
-7.74782
-7.76146
-7.77586
-7.791
-7.8069
-7.82353
-7.84091
-7.85901
-7.87783
-7.89734
-7.91755
-7.93844
-7.95999
-7.9822
-8.00503
-8.02846
-8.05246
-8.077
-8.10204
-8.12752
-8.15343
-8.17969
-8.20627
-8.23312
-8.26018
-8.28739
-8.31469
-8.34199
-8.36923
-8.3963
-8.42313
-8.4496
-8.47561
-8.50105
-8.52581
-8.54975
-8.57276
-8.59468
-8.61537
-8.6347
-8.6525
-8.6686
-8.68284
-8.69505
-8.70505
-8.71264
-8.71764
-8.71986
-8.71908
-8.7151
-8.70771
-8.6967
-8.68184
-8.66292
-8.63971
-8.61199
-8.57953
-8.5421
-8.49947
-8.45143
-8.39774
-8.33818
-8.27255
-8.20063
-8.12222
-8.03711
-7.94513
-7.84611
-7.73987
-7.62626
-7.50514
-7.37639
-7.23992
-7.09565
-6.9435
-6.78345
-6.61548
-6.4396
-6.25584
-6.06427
-5.86498
-5.65811
-5.4438
-5.22225
-4.99369
-4.75835
-4.51654
-4.26856
-4.01478
-3.75555
-3.49129
-3.22242
-2.9494
-2.67272
-2.39287
-2.11035
-1.82568
-1.53938
-1.25194
-0.963873
-0.675661
-0.387815
-0.100803
0.18497
0.469142
0.751354
1.03119
1.30822
1.58206
1.85238
2.1189
2.38136
2.63954
2.89326
3.1424
3.38685
3.62654
3.86145
4.09161
4.31705
4.53788
4.75422
4.96624
5.17415
5.37816
5.57854
5.77557
5.96957
6.16085
6.3498
6.53678
6.72221
6.90652
7.09015
7.27358
7.45727
7.64172
7.82743
8.01489
8.20461
8.39707
8.59274
8.79202
8.9953
9.20287
9.41495
9.63163
9.85281
10.0782
10.3074
10.5395
10.7736
11.0081
11.2419
11.4689
11.7022
11.8653
-7.58718
-7.59205
-7.59934
-7.60625
-7.61218
-7.61745
-7.6223
-7.62693
-7.63146
-7.63607
-7.64087
-7.64598
-7.65148
-7.65746
-7.66397
-7.67106
-7.67879
-7.68718
-7.69626
-7.70605
-7.71658
-7.72786
-7.73989
-7.75269
-7.76625
-7.78059
-7.79569
-7.81156
-7.82818
-7.84556
-7.86368
-7.88254
-7.90211
-7.9224
-7.94338
-7.96505
-7.98737
-8.01032
-8.03386
-8.05798
-8.08263
-8.10776
-8.13334
-8.15932
-8.18564
-8.21227
-8.23914
-8.26622
-8.29342
-8.3207
-8.34796
-8.37512
-8.40211
-8.42882
-8.45515
-8.48099
-8.50624
-8.53078
-8.55449
-8.57723
-8.59887
-8.61927
-8.63828
-8.65574
-8.6715
-8.68539
-8.69724
-8.70686
-8.71407
-8.71869
-8.72051
-8.71934
-8.71498
-8.7072
-8.6958
-8.68056
-8.66126
-8.63767
-8.60957
-8.57674
-8.53893
-8.49594
-8.44753
-8.39347
-8.33356
-8.26757
-8.19531
-8.11652
-8.03105
-7.9387
-7.83929
-7.73266
-7.61866
-7.49712
-7.36796
-7.23105
-7.08632
-6.93371
-6.77317
-6.6047
-6.4283
-6.244
-6.05188
-5.85202
-5.64456
-5.42966
-5.2075
-4.97831
-4.74236
-4.49992
-4.25132
-3.99693
-3.73711
-3.47227
-3.20287
-2.92936
-2.65222
-2.37198
-2.08914
-1.80422
-1.51773
-1.23018
-0.942066
-0.653918
-0.366248
-0.079514
0.205876
0.489572
0.771209
1.0504
1.32669
1.59971
1.86912
2.13462
2.39599
2.65298
2.90547
3.15328
3.39636
3.63461
3.86804
4.09664
4.32051
4.53971
4.75441
4.96476
5.17099
5.37331
5.572
5.76734
5.95966
6.14928
6.33659
6.52196
6.70582
6.88859
7.07074
7.25273
7.43505
7.6182
7.80269
7.98903
8.17772
8.36927
8.56413
8.76275
8.9655
9.17269
9.38453
9.60111
9.82228
10.0478
10.277
10.5093
10.7434
10.9778
11.2114
11.4379
11.6704
11.8336
-7.60186
-7.60603
-7.6122
-7.61805
-7.62305
-7.62745
-7.63149
-7.63535
-7.63919
-7.64316
-7.64738
-7.65197
-7.65699
-7.66254
-7.66866
-7.67541
-7.68282
-7.69093
-7.69975
-7.70932
-7.71964
-7.73073
-7.74259
-7.75524
-7.76867
-7.78289
-7.79789
-7.81368
-7.83024
-7.84757
-7.86565
-7.88448
-7.90405
-7.92435
-7.94534
-7.96702
-7.98933
-8.01226
-8.03577
-8.05984
-8.08441
-8.10946
-8.13492
-8.16077
-8.18695
-8.2134
-8.24008
-8.26694
-8.2939
-8.32091
-8.34788
-8.37473
-8.40136
-8.42769
-8.45361
-8.47904
-8.50384
-8.52791
-8.55113
-8.57338
-8.59451
-8.61439
-8.63287
-8.64981
-8.66504
-8.6784
-8.68971
-8.69881
-8.7055
-8.70961
-8.71093
-8.70927
-8.70442
-8.69618
-8.68432
-8.66864
-8.64892
-8.6249
-8.59641
-8.56317
-8.525
-8.48163
-8.43288
-8.37848
-8.31825
-8.25194
-8.17934
-8.10026
-8.01446
-7.92178
-7.82206
-7.7151
-7.60076
-7.4789
-7.34939
-7.21213
-7.06704
-6.91406
-6.75315
-6.58429
-6.40749
-6.22278
-6.03023
-5.82994
-5.62204
-5.40668
-5.18406
-4.95442
-4.71801
-4.47511
-4.22608
-3.97126
-3.71103
-3.44582
-3.17609
-2.90229
-2.62493
-2.34452
-2.06157
-1.77662
-1.49016
-1.20271
-0.91481
-0.626985
-0.339735
-0.0535265
0.231237
0.514198
0.795008
1.07328
1.34859
1.62052
1.88876
2.15301
2.41303
2.66862
2.91964
3.16594
3.40743
3.64406
3.87582
4.10272
4.32485