/*--------------------------------*- C++ -*----------------------------------*\
  =========                 |
  \\      /  F ield         | OpenFOAM: The Open Source CFD Toolbox
   \\    /   O peration     | Website:  https://openfoam.org
    \\  /    A nd           | Version:  13
     \\/     M anipulation  |
\*---------------------------------------------------------------------------*/
FoamFile
{
    format      ascii;
    class       surfaceScalarField;
    location    "200";
    object      phi;
}
// * * * * * * * * * * * * * * * * * * * * * * * * * * * * * * * * * * * * * //

dimensions      [0 3 -1 0 0 0 0];

internalField   nonuniform List<scalar> 
24170
(
3.1248e-06
6.3603e-08
3.04343e-06
8.13745e-08
2.97237e-06
7.10522e-08
2.90511e-06
6.72596e-08
2.8415e-06
6.36124e-08
2.78447e-06
5.70272e-08
2.7352e-06
4.92764e-08
2.69317e-06
4.20248e-08
2.65737e-06
3.57965e-08
2.62679e-06
3.05859e-08
2.60045e-06
2.6333e-08
2.57753e-06
2.29166e-08
2.55737e-06
2.01659e-08
2.53936e-06
1.80106e-08
2.52312e-06
1.62341e-08
2.50746e-06
1.56597e-08
2.49315e-06
1.43154e-08
2.1168e-08
2.47198e-06
3.45671e-06
2.41378e-08
3.45867e-06
7.942e-08
3.45002e-06
7.96995e-08
3.43749e-06
7.97919e-08
3.42242e-06
7.86753e-08
3.40528e-06
7.41727e-08
3.38632e-06
6.82333e-08
3.36607e-06
6.2276e-08
3.34516e-06
5.66997e-08
3.32418e-06
5.15679e-08
3.3036e-06
4.69117e-08
3.28371e-06
4.28098e-08
3.26469e-06
3.91771e-08
3.24662e-06
3.60884e-08
3.22955e-06
3.32966e-08
3.2135e-06
3.17162e-08
3.19872e-06
2.9094e-08
3.18623e-08
3.18802e-06
3.66857e-06
1.80884e-08
3.6801e-06
6.78879e-08
3.68627e-06
7.35249e-08
3.69004e-06
7.60262e-08
3.69131e-06
7.74026e-08
3.69007e-06
7.54156e-08
3.68674e-06
7.15635e-08
3.68178e-06
6.72344e-08
3.67556e-06
6.29153e-08
3.66839e-06
5.87376e-08
3.66053e-06
5.47728e-08
3.65221e-06
5.11237e-08
3.64362e-06
4.77685e-08
3.63491e-06
4.47985e-08
3.62613e-06
4.20757e-08
3.61771e-06
4.01391e-08
3.60893e-06
3.78727e-08
3.78434e-08
3.60295e-06
3.92608e-06
1.73967e-08
3.93643e-06
5.75391e-08
3.94314e-06
6.68091e-08
3.94862e-06
7.05529e-08
3.95291e-06
7.31112e-08
3.95572e-06
7.2599e-08
3.95728e-06
7.00102e-08
3.95782e-06
6.66926e-08
3.95753e-06
6.32019e-08
3.95656e-06
5.97084e-08
3.95503e-06
5.62997e-08
3.95307e-06
5.3088e-08
3.95075e-06
5.0083e-08
3.94819e-06
4.73628e-08
3.9454e-06
4.48624e-08
3.94269e-06
4.2848e-08
3.93972e-06
4.08377e-08
3.96343e-08
3.93793e-06
4.20823e-06
1.62887e-08
4.21615e-06
4.96253e-08
4.22192e-06
6.10405e-08
4.22704e-06
6.54256e-08
4.23179e-06
6.83681e-08
4.23573e-06
6.86542e-08
4.23886e-06
6.68814e-08
4.24129e-06
6.42577e-08
4.24314e-06
6.13529e-08
4.24449e-06
5.83548e-08
4.24543e-06
5.53622e-08
4.24603e-06
5.24852e-08
4.24636e-06
4.97576e-08
4.24648e-06
4.72402e-08
4.24644e-06
4.49082e-08
4.2464e-06
4.28793e-08
4.2463e-06
4.09379e-08
3.9257e-08
4.24668e-06
4.51068e-06
1.46969e-08
4.51691e-06
4.33903e-08
4.52221e-06
5.57424e-08
4.52706e-06
6.05783e-08
4.53179e-06
6.3636e-08
4.53604e-06
6.43995e-08
4.53971e-06
6.32137e-08
4.54286e-06
6.11093e-08
4.54556e-06
5.86482e-08
4.54789e-06
5.60303e-08
4.54988e-06
5.33653e-08
4.55161e-06
5.07563e-08
4.55312e-06
4.82527e-08
4.55446e-06
4.59002e-08
4.55567e-06
4.36933e-08
4.55688e-06
4.1674e-08
4.55808e-06
3.97332e-08
3.78433e-08
4.55949e-06
4.8343e-06
1.3119e-08
4.83962e-06
3.80668e-08
4.84477e-06
5.05976e-08
4.84948e-06
5.58623e-08
4.85413e-06
5.89894e-08
4.85845e-06
6.00711e-08
4.86233e-06
5.9336e-08
4.8658e-06
5.76435e-08
4.86891e-06
5.55369e-08
4.87171e-06
5.32271e-08
4.87425e-06
5.08313e-08
4.87655e-06
4.84464e-08
4.87868e-06
4.61294e-08
4.88066e-06
4.3916e-08
4.88255e-06
4.18086e-08
4.88441e-06
3.98132e-08
4.88627e-06
3.78651e-08
3.58922e-08
4.88823e-06
5.18103e-06
1.1674e-08
5.18574e-06
3.33534e-08
5.19074e-06
4.55924e-08
5.19539e-06
5.12132e-08
5.19998e-06
5.44009e-08
5.20434e-06
5.5706e-08
5.20835e-06
5.53347e-08
5.212e-06
5.39894e-08
5.21535e-06
5.21831e-08
5.21844e-06
5.01372e-08
5.2213e-06
4.79732e-08
5.22396e-06
4.57836e-08
5.22646e-06
4.36279e-08
5.22884e-06
4.1537e-08
5.23113e-06
3.95161e-08
5.23339e-06
3.75577e-08
5.23564e-06
3.56175e-08
3.36329e-08
5.23789e-06
5.55268e-06
1.03328e-08
5.55687e-06
2.9158e-08
5.56168e-06
4.07883e-08
5.56628e-06
4.66135e-08
5.57083e-06
4.9842e-08
5.57524e-06
5.13023e-08
5.57934e-06
5.12296e-08
5.58314e-06
5.01883e-08
5.58668e-06
4.86483e-08
5.58998e-06
4.68384e-08
5.59307e-06
4.48824e-08
5.59598e-06
4.28701e-08
5.59875e-06
4.08607e-08
5.6014e-06
3.8884e-08
5.60397e-06
3.69467e-08
5.60649e-06
3.50393e-08
5.60897e-06
3.31306e-08
3.11809e-08
5.61143e-06
5.95103e-06
9.07956e-09
5.95477e-06
2.54143e-08
5.95934e-06
3.62196e-08
5.96388e-06
4.20684e-08
5.96842e-06
4.53041e-08
5.97286e-06
4.68637e-08
5.97706e-06
4.70305e-08
5.98099e-06
4.62554e-08
5.98468e-06
4.49559e-08
5.98816e-06
4.3362e-08
5.99144e-06
4.15988e-08
5.99456e-06
3.97531e-08
5.99754e-06
3.78831e-08
6.0004e-06
3.6019e-08
6.00318e-06
3.41699e-08
6.00589e-06
3.23298e-08
6.00854e-06
3.0478e-08
2.85968e-08
6.01112e-06
6.37798e-06
7.91512e-09
6.38133e-06
2.20561e-08
6.38566e-06
3.18961e-08
6.39013e-06
3.75925e-08
6.39465e-06
4.079e-08
6.39911e-06
4.23997e-08
6.40339e-06
4.27474e-08
6.40745e-06
4.22e-08
6.41129e-06
4.11176e-08
6.41492e-06
3.97231e-08
6.41838e-06
3.81415e-08
6.42168e-06
3.64562e-08
6.42484e-06
3.47238e-08
6.42788e-06
3.29759e-08
6.43082e-06
3.12246e-08
6.43368e-06
2.94694e-08
6.43646e-06
2.76989e-08
2.59125e-08
6.43915e-06
5.74176e-06
6.99292e-09
5.74433e-06
1.94773e-08
5.7478e-06
2.8431e-08
5.75152e-06
3.38718e-08
5.75531e-06
3.69955e-08
5.7591e-06
3.86144e-08
5.76277e-06
3.90709e-08
5.76629e-06
3.86838e-08
5.76964e-06
3.77667e-08
5.77283e-06
3.65292e-08
5.77588e-06
3.50938e-08
5.7788e-06
3.35412e-08
5.78159e-06
3.19265e-08
5.78429e-06
3.02819e-08
5.78689e-06
2.86228e-08
5.7894e-06
2.69532e-08
5.79183e-06
2.52684e-08
2.35794e-08
5.79417e-06
6.99914e-06
6.01258e-09
7.00186e-06
1.67485e-08
7.00562e-06
2.46714e-08
7.00978e-06
2.97119e-08
7.01409e-06
3.26833e-08
7.01844e-06
3.42673e-08
7.02271e-06
3.48031e-08
7.02683e-06
3.45638e-08
7.03078e-06
3.38132e-08
7.03457e-06
3.27415e-08
7.0382e-06
3.14659e-08
7.04167e-06
3.00631e-08
7.04501e-06
2.85857e-08
7.04823e-06
2.7067e-08
7.05133e-06
2.55249e-08
7.05431e-06
2.39688e-08
7.05718e-06
2.23997e-08
2.08374e-08
7.05992e-06
8.53188e-06
4.98184e-09
8.53473e-06
1.38967e-08
8.53876e-06
2.06446e-08
8.54335e-06
2.51196e-08
8.5482e-06
2.78343e-08
8.55314e-06
2.93202e-08
8.55806e-06
2.98892e-08
8.56285e-06
2.97712e-08
8.56748e-06
2.9179e-08
8.57195e-06
2.82772e-08
8.57624e-06
2.71732e-08
8.58036e-06
2.59382e-08
8.58433e-06
2.46213e-08
8.58814e-06
2.32555e-08
8.5918e-06
2.18614e-08
8.59532e-06
2.04522e-08
8.59868e-06
1.90338e-08
1.76312e-08
8.60189e-06
1.04003e-05
3.90981e-09
1.04032e-05
1.0941e-08
1.04075e-05
1.63721e-08
1.04125e-05
2.01032e-08
1.04179e-05
2.24317e-08
1.04235e-05
2.37356e-08
1.04291e-05
2.42749e-08
1.04347e-05
2.42361e-08
1.04401e-05
2.37832e-08
1.04453e-05
2.30488e-08
1.04503e-05
2.21258e-08
1.04552e-05
2.10767e-08
1.04599e-05
1.9946e-08
1.04644e-05
1.87647e-08
1.04687e-05
1.75542e-08
1.04728e-05
1.633e-08
1.04767e-05
1.51011e-08
1.38943e-08
1.04805e-05
1.26779e-05
2.8015e-09
1.2681e-05
7.87511e-09
1.26855e-05
1.18514e-08
1.26909e-05
1.46564e-08
1.26969e-05
1.64474e-08
1.27032e-05
1.74639e-08
1.27096e-05
1.78954e-08
1.27159e-05
1.78809e-08
1.27222e-05
1.7537e-08
1.27283e-05
1.69612e-08
1.27342e-05
1.62256e-08
1.27398e-05
1.53811e-08
1.27453e-05
1.44642e-08
1.27506e-05
1.3502e-08
1.27556e-05
1.25142e-08
1.27604e-05
1.15163e-08
1.2765e-05
1.05176e-08
9.54442e-09
1.27694e-05
1.54543e-05
1.64602e-09
1.54576e-05
4.65268e-09
1.54624e-05
7.02437e-09
1.54683e-05
8.71868e-09
1.5475e-05
9.80694e-09
1.5482e-05
1.04143e-08
1.54893e-05
1.06499e-08
1.54965e-05
1.05974e-08
1.55037e-05
1.03267e-08
1.55108e-05
9.89728e-09
1.55177e-05
9.35543e-09
1.55243e-05
8.73534e-09
1.55307e-05
8.06262e-09
1.55369e-05
7.35695e-09
1.55428e-05
6.63363e-09
1.55484e-05
5.90528e-09
1.55537e-05
5.17963e-09
4.4794e-09
1.55588e-05
1.88389e-05
4.03248e-10
1.88424e-05
1.1485e-09
1.88477e-05
1.71636e-09
1.88543e-05
2.09827e-09
1.88618e-05
2.31202e-09
1.88698e-05
2.38508e-09
1.88781e-05
2.33896e-09
1.88865e-05
2.19315e-09
1.88949e-05
1.96756e-09
1.89031e-05
1.68036e-09
1.89111e-05
1.34661e-09
1.89189e-05
9.78791e-10
1.89264e-05
5.87588e-10
1.89335e-05
1.82144e-10
1.89404e-05
-2.29673e-10
1.89469e-05
-6.4068e-10
1.89532e-05
-1.04668e-09
-1.43034e-09
1.89591e-05
2.29648e-05
-1.02836e-09
2.29688e-05
-2.92699e-09
2.29751e-05
-4.49301e-09
2.29828e-05
-5.68198e-09
2.29917e-05
-6.51585e-09
2.30011e-05
-7.08174e-09
2.30109e-05
-7.46774e-09
2.30209e-05
-7.72838e-09
2.30307e-05
-7.90049e-09
2.30404e-05
-8.01509e-09
2.30499e-05
-8.09629e-09
2.3059e-05
-8.15838e-09
2.30678e-05
-8.20959e-09
2.30762e-05
-8.25401e-09
2.30843e-05
-8.29397e-09
2.3092e-05
-8.32926e-09
2.30993e-05
-8.36077e-09
-8.37754e-09
2.31062e-05
1.68118e-05
-2.15257e-09
1.6815e-05
-6.102e-09
1.68198e-05
-9.32906e-09
1.68258e-05
-1.16866e-08
1.68326e-05
-1.3235e-08
1.68397e-05
-1.4205e-08
1.6847e-05
-1.47845e-08
1.68543e-05
-1.5077e-08
1.68616e-05
-1.51606e-08
1.68687e-05
-1.51079e-08
1.68756e-05
-1.49712e-08
1.68822e-05
-1.47839e-08
1.68886e-05
-1.45663e-08
1.68946e-05
-1.43327e-08
1.69004e-05
-1.40911e-08
1.69059e-05
-1.38468e-08
1.69112e-05
-1.36025e-08
-1.3352e-08
1.69162e-05
1.46356e-05
-3.23209e-09
1.46387e-05
-9.1935e-09
1.46435e-05
-1.40515e-08
1.46492e-05
-1.74386e-08
1.46555e-05
-1.95288e-08
1.46621e-05
-2.07778e-08
1.46687e-05
-2.14565e-08
1.46754e-05
-2.16988e-08
1.46818e-05
-2.16351e-08
1.46881e-05
-2.13817e-08
1.46942e-05
-2.10145e-08
1.47e-05
-2.05778e-08
1.47055e-05
-2.0102e-08
1.47108e-05
-1.96081e-08
1.47158e-05
-1.91096e-08
1.47205e-05
-1.86137e-08
1.47251e-05
-1.81254e-08
-1.76405e-08
1.47294e-05
1.27411e-05
-4.24243e-09
1.27443e-05
-1.23266e-08
1.27491e-05
-1.88922e-08
1.27548e-05
-2.30926e-08
1.27608e-05
-2.5515e-08
1.27669e-05
-2.69426e-08
1.27731e-05
-2.76366e-08
1.27791e-05
-2.77435e-08
1.2785e-05
-2.74698e-08
1.27906e-05
-2.69809e-08
1.27959e-05
-2.63661e-08
1.2801e-05
-2.56767e-08
1.28059e-05
-2.49498e-08
1.28105e-05
-2.42109e-08
1.28148e-05
-2.34758e-08
1.2819e-05
-2.27523e-08
1.28229e-05
-2.20456e-08
-2.13526e-08
1.28266e-05
1.10918e-05
-5.0829e-09
1.1095e-05
-1.5559e-08
1.11001e-05
-2.40328e-08
1.11058e-05
-2.87217e-08
1.11115e-05
-3.12515e-08
1.11173e-05
-3.27614e-08
1.11231e-05
-3.33735e-08
1.11286e-05
-3.32656e-08
1.11339e-05
-3.27409e-08
1.11389e-05
-3.19971e-08
1.11436e-05
-3.11255e-08
1.11481e-05
-3.01826e-08
1.11524e-05
-2.92114e-08
1.11564e-05
-2.82408e-08
1.11602e-05
-2.72858e-08
1.11638e-05
-2.63549e-08
1.11672e-05
-2.54516e-08
-2.45741e-08
1.11705e-05
9.6558e-06
-5.67149e-09
9.65925e-06
-1.90017e-08
9.66462e-06
-2.94078e-08
9.67013e-06
-3.42277e-08
9.67569e-06
-3.68123e-08
9.68125e-06
-3.83273e-08
9.68659e-06
-3.87172e-08
9.69164e-06
-3.83073e-08
9.6964e-06
-3.75015e-08
9.70089e-06
-3.64941e-08
9.70513e-06
-3.53637e-08
9.70912e-06
-3.41699e-08
9.71287e-06
-3.29609e-08
9.71639e-06
-3.17661e-08
9.7197e-06
-3.0601e-08
9.72282e-06
-2.94727e-08
9.72575e-06
-2.83832e-08
-2.7329e-08
9.72851e-06
8.40529e-06
-5.6097e-09
8.40963e-06
-2.33416e-08
8.41491e-06
-3.46927e-08
8.41998e-06
-3.9292e-08
8.42538e-06
-4.22115e-08
8.43081e-06
-4.37645e-08
8.43592e-06
-4.38252e-08
8.44064e-06
-4.30307e-08
8.44503e-06
-4.18845e-08
8.4491e-06
-4.05621e-08
8.45286e-06
-3.91323e-08
8.45635e-06
-3.76578e-08
8.45958e-06
-3.61886e-08
8.46256e-06
-3.47529e-08
8.46533e-06
-3.33655e-08
8.46789e-06
-3.20331e-08
8.47026e-06
-3.07574e-08
-2.95348e-08
8.47247e-06
7.31456e-06
-2.88652e-09
7.32129e-06
-3.00741e-08
7.32691e-06
-4.03076e-08
7.33191e-06
-4.42916e-08
7.33736e-06
-4.76613e-08
7.34272e-06
-4.91252e-08
7.34762e-06
-4.87248e-08
7.35204e-06
-4.745e-08
7.35601e-06
-4.58579e-08
7.35955e-06
-4.41065e-08
7.36269e-06
-4.22737e-08
7.36547e-06
-4.04324e-08
7.36791e-06
-3.8634e-08
7.37006e-06
-3.69031e-08
7.37195e-06
-3.5254e-08
7.37361e-06
-3.36903e-08
7.37506e-06
-3.22113e-08
-3.08082e-08
7.37633e-06
6.3626e-06
4.57709e-09
6.37245e-06
-3.99243e-08
6.38004e-06
-4.78913e-08
6.38668e-06
-5.09357e-08
6.39289e-06
-5.38756e-08
6.39811e-06
-5.43379e-08
6.4023e-06
-5.29188e-08
6.40569e-06
-5.08414e-08
6.40841e-06
-4.85821e-08
6.41054e-06
-4.62287e-08
6.41212e-06
-4.38544e-08
6.41322e-06
-4.15372e-08
6.41391e-06
-3.93262e-08
6.41425e-06
-3.7241e-08
6.41429e-06
-3.52935e-08
6.41408e-06
-3.34823e-08
6.41368e-06
-3.18068e-08
-3.02469e-08
6.41312e-06
5.54123e-06
8.80656e-09
5.55121e-06
-4.98962e-08
5.55951e-06
-5.6199e-08
5.56718e-06
-5.86034e-08
5.57343e-06
-6.01198e-08
5.57747e-06
-5.83821e-08
5.57945e-06
-5.4902e-08
5.57981e-06
-5.11951e-08
5.5789e-06
-4.76763e-08
5.57701e-06
-4.43358e-08
5.57434e-06
-4.11859e-08
5.57107e-06
-3.82727e-08
5.56735e-06
-3.56046e-08
5.56329e-06
-3.31777e-08
5.55898e-06
-3.09866e-08
5.55452e-06
-2.90192e-08
5.54999e-06
-2.72783e-08
-2.57189e-08
5.54546e-06
4.86521e-06
-2.87988e-08
4.86854e-06
-5.32238e-08
4.86548e-06
-5.31422e-08
4.86067e-06
-5.37892e-08
4.85481e-06
-5.42588e-08
4.8472e-06
-5.0777e-08
4.83765e-06
-4.53528e-08
4.8265e-06
-4.00394e-08
4.81417e-06
-3.53553e-08
4.80113e-06
-3.12884e-08
4.78773e-06
-2.7787e-08
4.77426e-06
-2.48017e-08
4.76091e-06
-2.22583e-08
4.74782e-06
-2.00926e-08
4.73509e-06
-1.82545e-08
4.72279e-06
-1.6716e-08
4.71102e-06
-1.55132e-08
-1.51589e-08
4.70046e-06
4.17388e-06
4.12065e-06
4.06751e-06
4.01372e-06
3.95946e-06
3.90869e-06
3.86333e-06
3.82329e-06
3.78794e-06
3.75665e-06
3.72886e-06
3.70406e-06
3.6818e-06
3.66171e-06
3.64346e-06
3.62674e-06
3.61123e-06
3.59607e-06
1.36094e-08
-1.3635e-08
2.62509e-08
-1.26794e-08
3.28334e-08
-6.61097e-09
3.2656e-08
1.49851e-10
2.64502e-08
6.18429e-09
1.54922e-08
1.09345e-08
1.05711e-09
1.4418e-08
-1.58747e-08
1.69116e-08
-3.46061e-08
1.87181e-08
-5.4685e-08
2.00618e-08
-7.58153e-08
2.11199e-08
-9.78381e-08
2.20082e-08
-1.20641e-07
2.27948e-08
-1.4417e-07
2.35168e-08
-1.68369e-07
2.41924e-08
-1.93209e-07
2.48303e-08
-2.1865e-07
2.54363e-08
-2.44676e-07
2.60177e-08
-2.71267e-07
2.65867e-08
-2.98439e-07
2.71636e-08
-3.26223e-07
2.77794e-08
-3.54703e-07
2.84706e-08
-3.83885e-07
2.91774e-08
-4.13672e-07
2.97783e-08
-4.44059e-07
3.03824e-08
-4.74876e-07
3.08107e-08
-5.05546e-07
3.0667e-08
-5.36342e-07
3.07923e-08
-5.68826e-07
3.24811e-08
-6.03899e-07
3.50708e-08
-6.41415e-07
3.75125e-08
-6.80077e-07
3.86594e-08
-7.18462e-07
3.83796e-08
-7.59487e-07
4.10202e-08
-8.08627e-07
4.91308e-08
-8.52218e-07
4.358e-08
-8.84965e-07
3.27352e-08
-9.22723e-07
3.7744e-08
-9.63431e-07
4.06964e-08
-1.00518e-06
4.17309e-08
-1.04755e-06
4.23639e-08
-1.0903e-06
4.27391e-08
-1.13324e-06
4.29289e-08
-1.17625e-06
4.29958e-08
-1.21924e-06
4.29841e-08
-1.26217e-06
4.29191e-08
-1.30499e-06
4.2818e-08
-1.34769e-06
4.26906e-08
-1.39024e-06
4.2543e-08
-1.43263e-06
4.23789e-08
-1.47483e-06
4.22002e-08
-1.51685e-06
4.20072e-08
-1.55866e-06
4.18001e-08
-1.60026e-06
4.15778e-08
-1.6416e-06
4.13393e-08
-1.6827e-06
4.10821e-08
-1.72351e-06
4.08051e-08
-1.76403e-06
4.05054e-08
-1.80422e-06
4.01818e-08
-1.84407e-06
3.98309e-08
-1.88352e-06
3.94518e-08
-1.92258e-06
3.90415e-08
-1.96118e-06
3.85989e-08
-1.99931e-06
3.81208e-08
-2.03691e-06
3.76064e-08
-2.07397e-06
3.70525e-08
-2.11043e-06
3.64588e-08
-2.14626e-06
3.58226e-08
-2.1814e-06
3.51439e-08
-2.21582e-06
3.44201e-08
-2.24947e-06
3.36515e-08
-2.2823e-06
3.28355e-08
-2.31427e-06
3.19724e-08
-2.34533e-06
3.10601e-08
-2.37543e-06
3.00991e-08
-2.40452e-06
2.90871e-08
-2.43254e-06
2.80257e-08
-2.45946e-06
2.6913e-08
-2.48521e-06
2.57503e-08
-2.50974e-06
2.4535e-08
-2.533e-06
2.32681e-08
-2.55494e-06
2.19471e-08
-2.5755e-06
2.05723e-08
-2.59464e-06
1.91401e-08
-2.61227e-06
1.76498e-08
-2.62836e-06
1.60972e-08
-2.64282e-06
1.44798e-08
-2.6556e-06
1.27916e-08
-2.6666e-06
1.10264e-08
-2.67575e-06
9.17391e-09
-2.68295e-06
7.21851e-09
-2.68808e-06
5.14495e-09
-2.69103e-06
2.95552e-09
-2.69174e-06
7.15789e-10
-2.69035e-06
-1.37337e-09
-2.68708e-06
-3.27158e-09
-2.68196e-06
-5.11258e-09
-2.67501e-06
-6.94104e-09
-2.66623e-06
-8.77654e-09
-2.6556e-06
-1.06227e-08
-2.64311e-06
-1.2478e-08
-2.62876e-06
-1.434e-08
-2.61254e-06
-1.62048e-08
-2.59446e-06
-1.80686e-08
-2.57451e-06
-1.99278e-08
-2.5527e-06
-2.17779e-08
-2.52905e-06
-2.36155e-08
-2.50358e-06
-2.54351e-08
-2.47631e-06
-2.72334e-08
-2.44727e-06
-2.90037e-08
-2.41649e-06
-3.07432e-08
-2.384e-06
-3.24444e-08
-2.34986e-06
-3.41048e-08
-2.3141e-06
-3.57161e-08
-2.27679e-06
-3.7277e-08
-2.23797e-06
-3.87789e-08
-2.19772e-06
-4.02209e-08
-2.1561e-06
-4.15945e-08
-2.11318e-06
-4.28987e-08
-2.06903e-06
-4.41249e-08
-2.02373e-06
-4.52728e-08
-1.97735e-06
-4.63378e-08
-1.92998e-06
-4.7331e-08
-1.8817e-06
-4.82456e-08
-1.8326e-06
-4.90731e-08
-1.78279e-06
-4.98044e-08
-1.73235e-06
-5.04574e-08
-1.68136e-06
-5.10195e-08
-1.62993e-06
-5.14923e-08
-1.57814e-06
-5.18662e-08
-1.52609e-06
-5.21471e-08
-1.47387e-06
-5.23277e-08
-1.42159e-06
-5.24127e-08
-1.36934e-06
-5.23987e-08
-1.3172e-06
-5.22893e-08
-1.26527e-06
-5.2086e-08
-1.21363e-06
-5.17886e-08
-1.16237e-06
-5.13998e-08
-1.11154e-06
-5.09169e-08
-1.06124e-06
-5.03548e-08
-1.01154e-06
-4.97241e-08
-9.6249e-07
-4.90447e-08
-9.14139e-07
-4.83224e-08
-8.66519e-07
-4.75662e-08
-8.19668e-07
-4.67755e-08
-7.73604e-07
-4.59627e-08
-7.2835e-07
-4.51307e-08
-6.83906e-07
-4.42955e-08
-6.40274e-07
-4.34588e-08
-5.97435e-07
-4.26365e-08
-5.55374e-07
-4.18321e-08
-5.14048e-07
-4.10655e-08
-4.73422e-07
-4.03389e-08
-4.33433e-07
-3.96697e-08
-3.94024e-07
-3.90638e-08
-3.5511e-07
-3.854e-08
-3.16615e-07
-3.80985e-08
-2.78434e-07
-3.77593e-08
-2.40466e-07
-3.75309e-08
-2.02587e-07
-3.74189e-08
-1.64699e-07
-3.74196e-08
-1.26602e-07
-3.7609e-08
-8.81724e-08
-3.79406e-08
-4.9349e-08
-3.83222e-08
-1.01473e-08
-3.87055e-08
2.92195e-08
-3.88648e-08
6.86366e-08
-3.89357e-08
1.08609e-07
-3.95016e-08
1.49713e-07
-4.06619e-08
1.92413e-07
-4.22705e-08
2.37041e-07
-4.42292e-08
2.83866e-07
-4.64407e-08
3.33037e-07
-4.88209e-08
3.84614e-07
-5.12446e-08
4.38447e-07
-5.35387e-08
4.94074e-07
-5.53544e-08
5.50361e-07
-5.60558e-08
6.04528e-07
-5.39585e-08
6.5032e-07
-4.56148e-08
8.02971e-10
6.49687e-07
7.8903e-09
-2.15465e-08
7.77834e-09
-1.25927e-08
2.83822e-09
-1.68658e-09
-5.36618e-09
8.34046e-09
-1.63359e-08
1.71433e-08
-2.9985e-08
2.45725e-08
-4.61925e-08
3.06166e-08
-6.47071e-08
3.54161e-08
-8.51983e-08
3.92017e-08
-1.07368e-07
4.22226e-08
-1.30957e-07
4.47021e-08
-1.55774e-07
4.68165e-08
-1.81679e-07
4.86944e-08
-2.08593e-07
5.04238e-08
-2.36469e-07
5.20636e-08
-2.65298e-07
5.36534e-08
-2.95086e-07
5.52215e-08
-3.25863e-07
5.6789e-08
-3.57653e-07
5.83729e-08
-3.90481e-07
5.99872e-08
-4.24349e-07
6.16436e-08
-4.59234e-07
6.33495e-08
-4.95165e-07
6.51048e-08
-5.32281e-07
6.68893e-08
-5.70584e-07
6.86811e-08
-6.10201e-07
7.04243e-08
-6.51622e-07
7.20844e-08
-6.94781e-07
7.39495e-08
-7.38635e-07
7.63322e-08
-7.82494e-07
7.89284e-08
-8.26192e-07
8.12077e-08
-8.70376e-07
8.28406e-08
-9.16137e-07
8.41372e-08
-9.61024e-07
8.59026e-08
-9.99353e-07
8.74539e-08
-1.0414e-06
8.5624e-08
-1.09121e-06
8.25391e-08
-1.136e-06
8.25189e-08
-1.17822e-06
8.29108e-08
-1.21954e-06
8.30433e-08
-1.26021e-06
8.30289e-08
-1.30039e-06
8.29117e-08
-1.34017e-06
8.27053e-08
-1.37961e-06
8.24287e-08
-1.41873e-06
8.20984e-08
-1.45755e-06
8.17277e-08
-1.49606e-06
8.13255e-08
-1.53427e-06
8.08976e-08
-1.57218e-06
8.04469e-08
-1.60978e-06
7.99745e-08
-1.64706e-06
7.94798e-08
-1.68402e-06
7.89613e-08
-1.72064e-06
7.84166e-08
-1.75692e-06
7.78429e-08
-1.79282e-06
7.72365e-08
-1.82834e-06
7.65937e-08
-1.86345e-06
7.59107e-08
-1.89814e-06
7.51837e-08
-1.93237e-06
7.44084e-08
-1.96613e-06
7.35811e-08
-1.99938e-06
7.26982e-08
-2.0321e-06
7.1756e-08
-2.06425e-06
7.0751e-08
-2.09582e-06
6.96798e-08
-2.12675e-06
6.85392e-08
-2.15703e-06
6.73261e-08
-2.18661e-06
6.60382e-08
-2.21546e-06
6.46727e-08
-2.24354e-06
6.32278e-08
-2.27083e-06
6.17011e-08
-2.29726e-06
6.0091e-08
-2.32282e-06
5.83956e-08
-2.34746e-06
5.66135e-08
-2.37114e-06
5.4743e-08
-2.39383e-06
5.27834e-08
-2.41547e-06
5.07333e-08
-2.43604e-06
4.85928e-08
-2.45549e-06
4.63608e-08
-2.47377e-06
4.40373e-08
-2.49086e-06
4.16209e-08
-2.5067e-06
3.91118e-08
-2.52125e-06
3.65087e-08
-2.53449e-06
3.38115e-08
-2.54636e-06
3.1019e-08
-2.55683e-06
2.81311e-08
-2.56588e-06
2.5147e-08
-2.57345e-06
2.20669e-08
-2.57954e-06
1.88905e-08
-2.58412e-06
1.56192e-08
-2.58719e-06
1.22547e-08
-2.58876e-06
8.80515e-09
-2.5889e-06
5.29356e-09
-2.5877e-06
1.76115e-09
-2.58523e-06
-1.75038e-09
-2.58134e-06
-5.25509e-09
-2.57582e-06
-8.78919e-09
-2.56858e-06
-1.23544e-08
-2.55957e-06
-1.59483e-08
-2.54877e-06
-1.95706e-08
-2.53617e-06
-2.3218e-08
-2.52176e-06
-2.68845e-08
-2.50553e-06
-3.05636e-08
-2.48748e-06
-3.42476e-08
-2.46761e-06
-3.79289e-08
-2.44592e-06
-4.15992e-08
-2.42243e-06
-4.52506e-08
-2.39715e-06
-4.88742e-08
-2.3701e-06
-5.2461e-08
-2.34131e-06
-5.60014e-08
-2.3108e-06
-5.94858e-08
-2.27861e-06
-6.29042e-08
-2.24479e-06
-6.62464e-08
-2.20936e-06
-6.95024e-08
-2.17239e-06
-7.26618e-08
-2.13393e-06
-7.57152e-08
-2.09404e-06
-7.86523e-08
-2.05278e-06
-8.14645e-08
-2.01021e-06
-8.41425e-08
-1.96642e-06
-8.66774e-08
-1.92147e-06
-8.90593e-08
-1.87544e-06
-9.12815e-08
-1.82842e-06
-9.33393e-08
-1.78048e-06
-9.52416e-08
-1.73171e-06
-9.69881e-08
-1.68221e-06
-9.85583e-08
-1.63207e-06
-9.99431e-08
-1.58137e-06
-1.01161e-07
-1.53021e-06
-1.02202e-07
-1.47867e-06
-1.0306e-07
-1.42686e-06
-1.03727e-07
-1.37485e-06
-1.04207e-07
-1.32275e-06
-1.04493e-07
-1.27064e-06
-1.04589e-07
-1.21863e-06
-1.04494e-07
-1.16679e-06
-1.04215e-07
-1.1152e-06
-1.03754e-07
-1.06395e-06
-1.03118e-07
-1.01311e-06
-1.02308e-07
-9.62738e-07
-1.01334e-07
-9.12907e-07
-1.00209e-07
-8.63679e-07
-9.89601e-08
-8.15106e-07
-9.76084e-08
-7.67233e-07
-9.61795e-08
-7.20087e-07
-9.46793e-08
-6.73694e-07
-9.31287e-08
-6.28065e-07
-9.15339e-08
-5.83209e-07
-8.99223e-08
-5.39118e-07
-8.8303e-08
-4.95783e-07
-8.67054e-08
-4.53172e-07
-8.51365e-08
-4.11256e-07
-8.36303e-08
-3.69983e-07
-8.21976e-08
-3.29302e-07
-8.0873e-08
-2.89138e-07
-7.96634e-08
-2.49415e-07
-7.86101e-08
-2.10035e-07
-7.77222e-08
-1.70898e-07
-7.70338e-08
-1.3188e-07
-7.65557e-08
-9.28522e-08
-7.63365e-08
-5.36658e-08
-7.63658e-08
-1.41844e-08
-7.66642e-08
2.56763e-08
-7.72193e-08
6.60053e-08
-7.80266e-08
1.07067e-07
-7.91337e-08
1.49162e-07
-8.05609e-08
1.92709e-07
-8.21678e-08
2.38048e-07
-8.40434e-08
2.85258e-07
-8.64796e-08
3.34414e-07
-8.95968e-08
3.85694e-07
-9.33336e-08
4.39254e-07
-9.75841e-08
4.95204e-07
-1.02192e-07
5.53555e-07
-1.06987e-07
6.14208e-07
-1.11722e-07
6.76863e-07
-1.16035e-07
7.40942e-07
-1.19288e-07
8.05203e-07
-1.2019e-07
8.67786e-07
-1.16432e-07
9.23247e-07
-1.0098e-07
-5.08941e-08
9.75032e-07
-3.42091e-09
-1.81413e-08
-1.27989e-08
-3.23094e-09
-2.44965e-08
1.00014e-08
-3.7757e-08
2.15929e-08
-5.24209e-08
3.18007e-08
-6.85607e-08
4.07054e-08
-8.62971e-08
4.83475e-08
-1.05698e-07
5.48106e-08
-1.26742e-07
6.02401e-08
-1.49346e-07
6.48208e-08
-1.73393e-07
6.87448e-08
-1.9877e-07
7.21874e-08
-2.25375e-07
7.52947e-08
-2.53137e-07
7.81808e-08
-2.82008e-07
8.09315e-08
-3.11968e-07
8.36091e-08
-3.43007e-07
8.62579e-08
-3.7513e-07
8.8908e-08
-4.08337e-07
9.15776e-08
-4.42629e-07
9.42749e-08
-4.77985e-07
9.69974e-08
-5.14372e-07
9.97317e-08
-5.51723e-07
1.02453e-07
-5.8996e-07
1.05123e-07
-6.28979e-07
1.07697e-07
-6.68692e-07
1.10134e-07
-7.0902e-07
1.1241e-07
-7.49676e-07
1.14604e-07
-7.90136e-07
1.1679e-07
-8.30055e-07
1.18845e-07
-8.69414e-07
1.20565e-07
-9.08381e-07
1.21806e-07
-9.4687e-07
1.22623e-07
-9.84167e-07
1.23196e-07
-1.01991e-06
1.23197e-07
-1.05657e-06
1.22276e-07
-1.09504e-06
1.21e-07
-1.1328e-06
1.20281e-07
-1.16968e-06
1.19785e-07
-1.20596e-06
1.19315e-07
-1.24178e-06
1.18845e-07
-1.27723e-06
1.18355e-07
-1.31236e-06
1.17837e-07
-1.34723e-06
1.17291e-07
-1.38185e-06
1.16717e-07
-1.41624e-06
1.16117e-07
-1.45041e-06
1.15493e-07
-1.48436e-06
1.14845e-07
-1.51809e-06
1.14172e-07
-1.55159e-06
1.13471e-07
-1.58485e-06
1.12739e-07
-1.61787e-06
1.11973e-07
-1.65062e-06
1.11168e-07
-1.6831e-06
1.10319e-07
-1.71529e-06
1.0942e-07
-1.74717e-06
1.08467e-07
-1.77871e-06
1.07453e-07
-1.80991e-06
1.06373e-07
-1.84072e-06
1.05221e-07
-1.87114e-06
1.03993e-07
-1.90113e-06
1.02683e-07
-1.93066e-06
1.01286e-07
-1.95971e-06
9.97965e-08
-1.98825e-06
9.8211e-08
-2.01623e-06
9.65248e-08
-2.04364e-06
9.47338e-08
-2.07044e-06
9.28344e-08
-2.09659e-06
9.08231e-08
-2.12206e-06
8.8697e-08
-2.14681e-06
8.6453e-08
-2.17081e-06
8.40886e-08
-2.19402e-06
8.16014e-08
-2.21639e-06
7.89893e-08
-2.2379e-06
7.62505e-08
-2.2585e-06
7.33833e-08
-2.27815e-06
7.03865e-08
-2.29681e-06
6.72595e-08
-2.31445e-06
6.40015e-08
-2.33103e-06
6.06119e-08
-2.34649e-06
5.70903e-08
-2.36082e-06
5.34367e-08
-2.37396e-06
4.9651e-08
-2.38587e-06
4.57338e-08
-2.39654e-06
4.16856e-08
-2.40591e-06
3.7508e-08
-2.41396e-06
3.32029e-08
-2.42066e-06
2.87733e-08
-2.42598e-06
2.42234e-08
-2.42992e-06
1.95594e-08
-2.43244e-06
1.47896e-08
-2.43356e-06
9.92712e-09
-2.43325e-06
4.99232e-09
-2.4315e-06
7.34664e-12
-2.42822e-06
-5.01923e-09
-2.42337e-06
-1.01079e-08
-2.41688e-06
-1.52738e-08
-2.40873e-06
-2.05089e-08
-2.39887e-06
-2.58024e-08
-2.3873e-06
-3.11457e-08
-2.37398e-06
-3.65289e-08
-2.35892e-06
-4.1942e-08
-2.34211e-06
-4.73737e-08
-2.32354e-06
-5.28125e-08
-2.30321e-06
-5.82466e-08
-2.28113e-06
-6.36634e-08
-2.25732e-06
-6.90507e-08
-2.23178e-06
-7.43948e-08
-2.20455e-06
-7.96824e-08
-2.17563e-06
-8.48987e-08
-2.14507e-06
-9.00299e-08
-2.11289e-06
-9.50602e-08
-2.07915e-06
-9.99756e-08
-2.04387e-06
-1.0476e-07
-2.00712e-06
-1.09399e-07
-1.96894e-06
-1.13878e-07
-1.92939e-06
-1.18183e-07
-1.88855e-06
-1.223e-07
-1.84646e-06
-1.26215e-07
-1.80322e-06
-1.29916e-07
-1.75888e-06
-1.3339e-07
-1.71352e-06
-1.36625e-07
-1.66722e-06
-1.39615e-07
-1.62008e-06
-1.42363e-07
-1.57217e-06
-1.44877e-07
-1.52359e-06
-1.47132e-07
-1.47441e-06
-1.49116e-07
-1.42473e-06
-1.50841e-07
-1.37464e-06
-1.52308e-07
-1.32422e-06
-1.53502e-07
-1.27355e-06
-1.54421e-07
-1.22273e-06
-1.55059e-07
-1.17185e-06
-1.55416e-07
-1.121e-06
-1.55495e-07
-1.07025e-06
-1.55298e-07
-1.01968e-06
-1.54832e-07
-9.69385e-07
-1.54107e-07
-9.19423e-07
-1.53131e-07
-8.69861e-07
-1.51912e-07
-8.20757e-07
-1.50465e-07
-7.72171e-07
-1.48811e-07
-7.24156e-07
-1.4698e-07
-6.7676e-07
-1.45006e-07
-6.30017e-07
-1.42916e-07
-5.83952e-07
-1.40735e-07
-5.38579e-07
-1.38483e-07
-4.93907e-07
-1.36186e-07
-4.4993e-07
-1.3387e-07
-4.06639e-07
-1.31564e-07
-3.64006e-07
-1.29297e-07
-3.22004e-07
-1.27097e-07
-2.80583e-07
-1.24999e-07
-2.39694e-07
-1.23034e-07
-1.99265e-07
-1.21238e-07
-1.59225e-07
-1.19639e-07
-1.1948e-07
-1.18282e-07
-7.99295e-08
-1.17199e-07
-4.0458e-08
-1.16424e-07
-9.49352e-10
-1.15985e-07
3.87164e-08
-1.15917e-07
7.86804e-08
-1.16248e-07
1.19131e-07
-1.1703e-07
1.60269e-07
-1.18276e-07
2.02318e-07
-1.19992e-07
2.45483e-07
-1.22221e-07
2.89982e-07
-1.2498e-07
3.36116e-07
-1.28227e-07
3.84172e-07
-1.32024e-07
4.34298e-07
-1.36533e-07
4.86595e-07
-1.41823e-07
5.41173e-07
-1.47843e-07
5.98117e-07
-1.54462e-07
6.5747e-07
-1.61482e-07
7.19194e-07
-1.68648e-07
7.83139e-07
-1.75609e-07
8.48989e-07
-1.81829e-07
9.16183e-07
-1.86432e-07
9.83791e-07
-1.87751e-07
1.05047e-06
-1.83064e-07
1.11469e-06
-1.65166e-07
-1.18603e-07
1.18245e-06
-1.20376e-08
-6.11622e-09
-2.75184e-08
1.22382e-08
-4.39702e-08
2.64463e-08
-6.10321e-08
3.86489e-08
-7.87263e-08
4.94901e-08
-9.71993e-08
5.91734e-08
-1.1663e-07
6.77736e-08
-1.37175e-07
7.53514e-08
-1.58937e-07
8.19978e-08
-1.81958e-07
8.78371e-08
-2.0623e-07
9.30125e-08
-2.31715e-07
9.76685e-08
-2.58362e-07
1.01938e-07
-2.86116e-07
1.05932e-07
-3.14928e-07
1.0974e-07
-3.44752e-07
1.1343e-07
-3.75543e-07
1.17047e-07
-4.07258e-07
1.2062e-07
-4.39843e-07
1.2416e-07
-4.73233e-07
1.27662e-07
-5.07343e-07
1.31105e-07
-5.4207e-07
1.34456e-07
-5.77286e-07
1.37666e-07
-6.12848e-07
1.40682e-07
-6.48603e-07
1.4345e-07
-6.84407e-07
1.45935e-07
-7.20128e-07
1.4813e-07
-7.55597e-07
1.50071e-07
-7.90606e-07
1.51796e-07
-8.25041e-07
1.53279e-07
-8.58921e-07
1.54443e-07
-8.92348e-07
1.5523e-07
-9.25368e-07
1.55642e-07
-9.57885e-07
1.5571e-07
-9.90073e-07
1.55381e-07
-1.02247e-06
1.54667e-07
-1.05525e-06
1.53774e-07
-1.08792e-06
1.52951e-07
-1.12034e-06
1.52198e-07
-1.1525e-06
1.51478e-07
-1.18444e-06
1.50775e-07
-1.21616e-06
1.50076e-07
-1.2477e-06
1.49371e-07
-1.27907e-06
1.48655e-07
-1.31027e-06
1.47921e-07
-1.34133e-06
1.47169e-07
-1.37223e-06
1.46394e-07
-1.40298e-06
1.45593e-07
-1.43357e-06
1.44761e-07
-1.464e-06
1.43894e-07
-1.49425e-06
1.42987e-07
-1.52431e-06
1.42032e-07
-1.55417e-06
1.41024e-07
-1.58381e-06
1.39955e-07
-1.61321e-06
1.3882e-07
-1.64235e-06
1.3761e-07
-1.67122e-06
1.36319e-07
-1.69979e-06
1.3494e-07
-1.72804e-06
1.33466e-07
-1.75594e-06
1.3189e-07
-1.78347e-06
1.30206e-07
-1.81059e-06
1.28407e-07
-1.83729e-06
1.26487e-07
-1.86352e-06
1.24441e-07
-1.88926e-06
1.22263e-07
-1.91448e-06
1.19948e-07
-1.93914e-06
1.17492e-07
-1.9632e-06
1.1489e-07
-1.98664e-06
1.12138e-07
-2.00942e-06
1.09232e-07
-2.0315e-06
1.0617e-07
-2.05285e-06
1.02948e-07
-2.07342e-06
9.95634e-08
-2.09319e-06
9.60142e-08
-2.1121e-06
9.22984e-08
-2.13013e-06
8.84144e-08
-2.14723e-06
8.43613e-08
-2.16336e-06
8.01382e-08
-2.17849e-06
7.57448e-08
-2.19258e-06
7.11808e-08
-2.20559e-06
6.64467e-08
-2.21748e-06
6.15431e-08
-2.22821e-06
5.64714e-08
-2.23776e-06
5.12335e-08
-2.24608e-06
4.5832e-08
-2.25314e-06
4.02707e-08
-2.25892e-06
3.45544e-08
-2.26338e-06
2.86891e-08
-2.2665e-06
2.26828e-08
-2.26825e-06
1.6545e-08
-2.2686e-06
1.02871e-08
-2.26753e-06
3.9231e-09
-2.26499e-06
-2.53585e-09
-2.26092e-06
-9.08785e-09
-2.25528e-06
-1.5741e-08
-2.24806e-06
-2.24975e-08
-2.23922e-06
-2.93481e-08
-2.22874e-06
-3.62798e-08
-2.21661e-06
-4.32797e-08
-2.2028e-06
-5.03336e-08
-2.18731e-06
-5.74274e-08
-2.17014e-06
-6.45459e-08
-2.15127e-06
-7.16736e-08
-2.13071e-06
-7.87943e-08
-2.10847e-06
-8.58917e-08
-2.08456e-06
-9.29487e-08
-2.059e-06
-9.99475e-08
-2.0318e-06
-1.0687e-07
-2.00299e-06
-1.13696e-07
-1.97259e-06
-1.20408e-07
-1.94065e-06
-1.26986e-07
-1.9072e-06
-1.33409e-07
-1.87229e-06
-1.39657e-07
-1.83597e-06
-1.45713e-07
-1.79828e-06
-1.51554e-07
-1.75928e-06
-1.57164e-07
-1.71905e-06