/*--------------------------------*- C++ -*----------------------------------*\
  =========                 |
  \\      /  F ield         | OpenFOAM: The Open Source CFD Toolbox
   \\    /   O peration     | Website:  https://openfoam.org
    \\  /    A nd           | Version:  13
     \\/     M anipulation  |
\*---------------------------------------------------------------------------*/
FoamFile
{
    format      ascii;
    class       volVectorField;
    location    "200";
    object      U;
}
// * * * * * * * * * * * * * * * * * * * * * * * * * * * * * * * * * * * * * //

dimensions      [0 1 -1 0 0 0 0];

internalField   nonuniform List<vector> 
12225
(
(9.84288 -0.896096 0)
(9.65339 -0.758579 0)
(9.44947 -0.44706 0)
(9.22359 -0.235729 0)
(9.00859 -0.115476 0)
(8.81799 -0.0512741 0)
(8.65152 -0.0181251 0)
(8.50919 -0.000968232 0)
(8.38719 0.00787348 0)
(8.28394 0.0122505 0)
(8.19507 0.0141838 0)
(8.11841 0.0152901 0)
(8.05119 0.015722 0)
(7.99169 0.0159347 0)
(7.9379 0.0157954 0)
(7.89032 0.0166187 0)
(7.8362 0.0147163 0)
(7.8229 0.0162046 0)
(10.0671 0.239338 0)
(10.13 0.343056 0)
(10.1205 0.274519 0)
(10.0817 0.195424 0)
(10.0379 0.140317 0)
(9.99116 0.104518 0)
(9.93911 0.0812622 0)
(9.88121 0.0656811 0)
(9.8206 0.054852 0)
(9.75873 0.0469682 0)
(9.69776 0.0410455 0)
(9.63832 0.0364211 0)
(9.58127 0.0327383 0)
(9.52702 0.0299062 0)
(9.4752 0.0275457 0)
(9.42784 0.0267293 0)
(9.37939 0.0248162 0)
(9.34745 0.0336211 0)
(10.0042 0.0529262 0)
(10.0322 0.0478088 0)
(10.0586 0.0265636 0)
(10.0724 0.027717 0)
(10.0781 0.0371948 0)
(10.0781 0.0442964 0)
(10.0722 0.0479087 0)
(10.0606 0.0493931 0)
(10.0451 0.0496513 0)
(10.0265 0.04919 0)
(10.0059 0.0483207 0)
(9.98369 0.0472844 0)
(9.96052 0.046208 0)
(9.93683 0.0452425 0)
(9.91282 0.0443082 0)
(9.88941 0.0441911 0)
(9.8658 0.0434501 0)
(9.84417 0.0466315 0)
(9.99799 0.0117138 0)
(10.0119 0.028622 0)
(10.0365 0.0393337 0)
(10.054 0.0498006 0)
(10.0655 0.0566395 0)
(10.0742 0.0589636 0)
(10.08 0.0588595 0)
(10.0826 0.0579457 0)
(10.0828 0.05679 0)
(10.0811 0.0555297 0)
(10.0778 0.0542262 0)
(10.0733 0.0529921 0)
(10.0678 0.0518316 0)
(10.0616 0.0508499 0)
(10.0547 0.0499707 0)
(10.0477 0.0496523 0)
(10.0404 0.0491304 0)
(10.0335 0.0501365 0)
(9.99933 0.00732927 0)
(10.0092 0.031932 0)
(10.028 0.0439819 0)
(10.0424 0.0498119 0)
(10.0534 0.0534735 0)
(10.0634 0.0551305 0)
(10.0721 0.0554506 0)
(10.0787 0.0552017 0)
(10.0837 0.0546957 0)
(10.0874 0.0540284 0)
(10.0901 0.0532607 0)
(10.0919 0.0524914 0)
(10.093 0.0517492 0)
(10.0935 0.051116 0)
(10.0936 0.0505703 0)
(10.0934 0.0503375 0)
(10.0933 0.0500736 0)
(10.0933 0.050291 0)
(10.0003 0.00912461 0)
(10.0083 0.0311282 0)
(10.0228 0.0408674 0)
(10.0352 0.0453275 0)
(10.0453 0.0490261 0)
(10.0551 0.0514067 0)
(10.064 0.0524151 0)
(10.0717 0.0526708 0)
(10.0781 0.0525586 0)
(10.0836 0.0522202 0)
(10.0884 0.0517366 0)
(10.0925 0.0512 0)
(10.0961 0.050656 0)
(10.0992 0.0501662 0)
(10.102 0.0497326 0)
(10.1046 0.0494514 0)
(10.1073 0.049163 0)
(10.1101 0.0489282 0)
(10.0004 0.00888616 0)
(10.0071 0.027062 0)
(10.0191 0.0364045 0)
(10.0302 0.041386 0)
(10.0397 0.0454302 0)
(10.0487 0.0481189 0)
(10.0574 0.0494077 0)
(10.065 0.0498989 0)
(10.0718 0.049996 0)
(10.0779 0.0498466 0)
(10.0834 0.0495326 0)
(10.0884 0.0491356 0)
(10.093 0.048707 0)
(10.0972 0.0482915 0)
(10.1012 0.047897 0)
(10.105 0.0475542 0)
(10.1088 0.0471729 0)
(10.1128 0.0466783 0)
(10.0004 0.00788495 0)
(10.0059 0.0233804 0)
(10.0161 0.0327436 0)
(10.0262 0.0380982 0)
(10.0351 0.0421009 0)
(10.0436 0.0448052 0)
(10.0517 0.0462396 0)
(10.0592 0.0468985 0)
(10.0659 0.047148 0)
(10.0721 0.0471345 0)
(10.0778 0.0469401 0)
(10.0832 0.0466387 0)
(10.0881 0.0462822 0)
(10.0928 0.0459038 0)
(10.0973 0.0455109 0)
(10.1017 0.0451029 0)
(10.106 0.0446171 0)
(10.1104 0.0439606 0)
(10.0004 0.00694445 0)
(10.005 0.0204283 0)
(10.0136 0.0294573 0)
(10.0228 0.0348567 0)
(10.0311 0.0387153 0)
(10.0391 0.0413977 0)
(10.0468 0.0429533 0)
(10.0539 0.0437521 0)
(10.0605 0.0441194 0)
(10.0667 0.0442067 0)
(10.0724 0.0440975 0)
(10.0778 0.0438607 0)
(10.0829 0.0435453 0)
(10.0878 0.0431785 0)
(10.0925 0.0427649 0)
(10.0971 0.0422926 0)
(10.1015 0.0417125 0)
(10.106 0.0409525 0)
(10.0004 0.00612118 0)
(10.0043 0.0178627 0)
(10.0116 0.0262807 0)
(10.0198 0.0315845 0)
(10.0276 0.0353174 0)
(10.035 0.0379615 0)
(10.0423 0.0395946 0)
(10.0492 0.0404951 0)
(10.0556 0.0409485 0)
(10.0616 0.0411089 0)
(10.0673 0.0410601 0)
(10.0727 0.0408661 0)
(10.0778 0.040572 0)
(10.0827 0.0402017 0)
(10.0874 0.0397587 0)
(10.092 0.0392292 0)
(10.0965 0.0385753 0)
(10.1009 0.0377525 0)
(10.0003 0.00536616 0)
(10.0036 0.0155562 0)
(10.0099 0.0232468 0)
(10.0172 0.0283573 0)
(10.0244 0.0319481 0)
(10.0314 0.0345135 0)
(10.0383 0.0361701 0)
(10.0449 0.0371334 0)
(10.0511 0.0376463 0)
(10.0569 0.037858 0)
(10.0625 0.0378512 0)
(10.0678 0.0376845 0)
(10.0728 0.0374 0)
(10.0777 0.0370196 0)
(10.0824 0.0365475 0)
(10.0869 0.0359726 0)
(10.0913 0.035268 0)
(10.0957 0.0344126 0)
(10.0003 0.00470419 0)
(10.0032 0.0136179 0)
(10.0086 0.0206037 0)
(10.0152 0.0254515 0)
(10.0219 0.0288768 0)
(10.0285 0.0313355 0)
(10.035 0.032972 0)
(10.0413 0.0339607 0)
(10.0473 0.0345059 0)
(10.053 0.034747 0)
(10.0584 0.0347643 0)
(10.0636 0.0346124 0)
(10.0686 0.0343301 0)
(10.0733 0.0339387 0)
(10.0779 0.033444 0)
(10.0824 0.0328398 0)
(10.0867 0.0321078 0)
(10.0909 0.031245 0)
(10.0003 0.00409174 0)
(10.0028 0.011852 0)
(10.0075 0.0181078 0)
(10.0134 0.022616 0)
(10.0196 0.0258415 0)
(10.0258 0.0281685 0)
(10.032 0.0297522 0)
(10.038 0.030739 0)
(10.0438 0.0312978 0)
(10.0493 0.0315544 0)
(10.0546 0.0315854 0)
(10.0597 0.0314417 0)
(10.0646 0.0311592 0)
(10.0693 0.0307589 0)
(10.0738 0.0302488 0)
(10.0781 0.0296274 0)
(10.0823 0.0288839 0)
(10.0863 0.0280293 0)
(10.0002 0.0034585 0)
(10.0024 0.0100164 0)
(10.0064 0.0154305 0)
(10.0117 0.0194736 0)
(10.0174 0.0224158 0)
(10.0232 0.0245512 0)
(10.029 0.0260311 0)
(10.0347 0.0269779 0)
(10.0402 0.0275249 0)
(10.0456 0.0277797 0)
(10.0507 0.0278125 0)
(10.0556 0.02767 0)
(10.0604 0.0273849 0)
(10.0649 0.0269776 0)
(10.0693 0.0264585 0)
(10.0735 0.0258313 0)
(10.0775 0.025092 0)
(10.0814 0.0242612 0)
(10.0002 0.00280049 0)
(10.002 0.00810938 0)
(10.0055 0.0125818 0)
(10.0101 0.0160294 0)
(10.0153 0.0185858 0)
(10.0206 0.0204543 0)
(10.026 0.0217659 0)
(10.0314 0.0226204 0)
(10.0367 0.0231183 0)
(10.0418 0.0233456 0)
(10.0467 0.0233629 0)
(10.0515 0.0232114 0)
(10.0561 0.0229203 0)
(10.0605 0.0225092 0)
(10.0647 0.0219902 0)
(10.0688 0.0213712 0)
(10.0726 0.0206538 0)
(10.0764 0.0198643 0)
(10.0002 0.00211706 0)
(10.0017 0.00613276 0)
(10.0047 0.0095696 0)
(10.0087 0.0122878 0)
(10.0134 0.0143388 0)
(10.0183 0.0158471 0)
(10.0233 0.0169113 0)
(10.0283 0.0176069 0)
(10.0333 0.0180051 0)
(10.0382 0.018169 0)
(10.0429 0.0181468 0)
(10.0475 0.0179723 0)
(10.0519 0.0176701 0)
(10.0561 0.017258 0)
(10.0602 0.0167488 0)
(10.0641 0.0161527 0)
(10.0678 0.0154746 0)
(10.0713 0.0147429 0)
(10.0002 0.00140519 0)
(10.0015 0.00407205 0)
(10.0041 0.00637711 0)
(10.0076 0.00823092 0)
(10.0118 0.00964528 0)
(10.0163 0.0106847 0)
(10.0209 0.0114097 0)
(10.0256 0.0118688 0)
(10.0304 0.0121065 0)
(10.035 0.0121634 0)
(10.0395 0.0120721 0)
(10.0439 0.011857 0)
(10.0481 0.0115366 0)
(10.0522 0.0111252 0)
(10.0561 0.0106342 0)
(10.0598 0.0100738 0)
(10.0633 0.00944947 0)
(10.0667 0.00878861 0)
(10.0001 0.000648354 0)
(10.0013 0.00187494 0)
(10.0036 0.00293144 0)
(10.0069 0.00377795 0)
(10.0107 0.00441373 0)
(10.0149 0.00486116 0)
(10.0192 0.00514292 0)
(10.0237 0.00527867 0)
(10.0281 0.00528742 0)
(10.0326 0.00518711 0)
(10.0369 0.00499287 0)
(10.0411 0.00471689 0)
(10.0451 0.0043692 0)
(10.049 0.00395846 0)
(10.0527 0.00349224 0)
(10.0563 0.00297807 0)
(10.0597 0.00242025 0)
(10.0629 0.00184199 0)
(10.0001 -0.000196663 0)
(10.0013 -0.000581065 0)
(10.0035 -0.000941565 0)
(10.0066 -0.00126444 0)
(10.0103 -0.00154997 0)
(10.0143 -0.00181249 0)
(10.0185 -0.00207014 0)
(10.0228 -0.00233516 0)
(10.0272 -0.002615 0)
(10.0314 -0.00291546 0)
(10.0356 -0.0032411 0)
(10.0397 -0.00359459 0)
(10.0436 -0.00397679 0)
(10.0473 -0.00438725 0)
(10.0509 -0.00482461 0)
(10.0544 -0.00528623 0)
(10.0576 -0.00577111 0)
(10.0607 -0.00626251 0)
(10.0001 -0.00100546 0)
(10.0013 -0.00293898 0)
(10.0037 -0.00466656 0)
(10.007 -0.00610452 0)
(10.0108 -0.00725015 0)
(10.015 -0.00816427 0)
(10.0193 -0.00890878 0)
(10.0237 -0.00952576 0)
(10.0281 -0.0100493 0)
(10.0324 -0.010511 0)
(10.0365 -0.0109356 0)
(10.0406 -0.0113399 0)
(10.0444 -0.011735 0)
(10.0481 -0.0121287 0)
(10.0517 -0.0125257 0)
(10.055 -0.0129286 0)
(10.0582 -0.0133395 0)
(10.0613 -0.0137479 0)
(10.0002 -0.00170309 0)
(10.0015 -0.00499893 0)
(10.0041 -0.00792296 0)
(10.0078 -0.0102697 0)
(10.012 -0.0120613 0)
(10.0165 -0.0134494 0)
(10.021 -0.0145405 0)
(10.0256 -0.0153915 0)
(10.0301 -0.0160591 0)
(10.0344 -0.016602 0)
(10.0387 -0.0170646 0)
(10.0427 -0.0174754 0)
(10.0466 -0.0178536 0)
(10.0503 -0.0182128 0)
(10.0538 -0.0185625 0)
(10.0571 -0.0189079 0)
(10.0603 -0.0192534 0)
(10.0633 -0.019592 0)
(10.0002 -0.00236544 0)
(10.0017 -0.00703592 0)
(10.0047 -0.0111784 0)
(10.009 -0.0143414 0)
(10.0137 -0.0166304 0)
(10.0186 -0.0183602 0)
(10.0234 -0.0196894 0)
(10.0282 -0.0206865 0)
(10.0329 -0.0214326 0)
(10.0374 -0.0220092 0)
(10.0417 -0.0224732 0)
(10.0458 -0.0228611 0)
(10.0497 -0.0231996 0)
(10.0534 -0.0235081 0)
(10.0569 -0.0237997 0)
(10.0603 -0.0240822 0)
(10.0634 -0.0243609 0)
(10.0664 -0.0246314 0)
(10.0002 -0.00298301 0)
(10.0018 -0.00910087 0)
(10.0054 -0.0144638 0)
(10.0105 -0.0183427 0)
(10.0159 -0.0210718 0)
(10.0212 -0.0230862 0)
(10.0263 -0.0245409 0)
(10.0314 -0.0255569 0)
(10.0363 -0.0262863 0)
(10.041 -0.0268382 0)
(10.0454 -0.0272686 0)
(10.0496 -0.0276131 0)
(10.0535 -0.0279011 0)
(10.0572 -0.0281553 0)
(10.0608 -0.0283899 0)
(10.0641 -0.0286134 0)
(10.0673 -0.0288313 0)
(10.0703 -0.0290415 0)
(10.0001 -0.00352056 0)
(10.0018 -0.0115493 0)
(10.0063 -0.0179057 0)
(10.0123 -0.0220048 0)
(10.0183 -0.0250633 0)
(10.0241 -0.0274615 0)
(10.0297 -0.0290882 0)
(10.0351 -0.0300899 0)
(10.0402 -0.0307383 0)
(10.045 -0.0311972 0)
(10.0495 -0.0315325 0)
(10.0538 -0.0317839 0)
(10.0578 -0.0319848 0)
(10.0616 -0.032159 0)
(10.0651 -0.0323198 0)
(10.0684 -0.0324745 0)
(10.0716 -0.0326266 0)
(10.0745 -0.0327728 0)
(9.9999 -0.00336892 0)
(10.0016 -0.0149545 0)
(10.0073 -0.0226863 0)
(10.0143 -0.0261957 0)
(10.0207 -0.0288263 0)
(10.027 -0.0312403 0)
(10.0333 -0.0329889 0)
(10.0392 -0.0340855 0)
(10.0447 -0.0347845 0)
(10.0497 -0.0352435 0)
(10.0543 -0.0355345 0)
(10.0586 -0.0357132 0)
(10.0626 -0.0358265 0)
(10.0663 -0.0359058 0)
(10.0697 -0.0359694 0)
(10.0729 -0.0360275 0)
(10.0758 -0.0360846 0)
(10.0786 -0.0361395 0)
(9.99859 -0.000445643 0)
(9.99914 -0.0159293 0)
(10.0077 -0.0274121 0)
(10.0169 -0.0322163 0)
(10.0241 -0.0344788 0)
(10.031 -0.0358391 0)
(10.0381 -0.0366409 0)
(10.0446 -0.0371652 0)
(10.0503 -0.0375666 0)
(10.0554 -0.0378591 0)
(10.06 -0.0380409 0)
(10.064 -0.0381387 0)
(10.0676 -0.0381835 0)
(10.0707 -0.0381982 0)
(10.0735 -0.0381985 0)
(10.0759 -0.0381941 0)
(10.078 -0.0381892 0)
(10.0799 -0.0381821 0)
(9.99496 0.00115569 0)
(9.99336 -0.0094949 0)
(10.0071 -0.0224721 0)
(10.0214 -0.0344024 0)
(10.0318 -0.0422761 0)
(10.0402 -0.0455578 0)
(10.0475 -0.0461305 0)
(10.0535 -0.0457167 0)
(10.0583 -0.0450424 0)
(10.0621 -0.044288 0)
(10.0649 -0.0435217 0)
(10.067 -0.0427925 0)
(10.0684 -0.0421271 0)
(10.0692 -0.0415294 0)
(10.0695 -0.0410041 0)
(10.0694 -0.0405464 0)
(10.0689 -0.0401503 0)
(10.0681 -0.0397892 0)
(9.99478 -0.0280711 0)
(10.0001 -0.0171951 0)
(10.0165 0.00346835 0)
(10.0326 0.00319926 0)
(10.0454 -0.00775431 0)
(10.0547 -0.0180063 0)
(10.0603 -0.0251222 0)
(10.0623 -0.0299264 0)
(10.0617 -0.0331316 0)
(10.059 -0.0351465 0)
(10.0548 -0.0363118 0)
(10.0494 -0.0369181 0)
(10.0431 -0.0371698 0)
(10.036 -0.0372013 0)
(10.0284 -0.0371095 0)
(10.0205 -0.0369591 0)
(10.0124 -0.0368182 0)
(10.0041 -0.0366639 0)
(10.0389 -0.190473 0)
(10.0865 -0.300325 0)
(10.0902 -0.258378 0)
(10.0758 -0.194628 0)
(10.0621 -0.146093 0)
(10.0489 -0.112196 0)
(10.0318 -0.0885165 0)
(10.0103 -0.0721141 0)
(9.98568 -0.0607045 0)
(9.95916 -0.0525007 0)
(9.93164 -0.0463906 0)
(9.9037 -0.0417037 0)
(9.87584 -0.0380245 0)
(9.8484 -0.0350718 0)
(9.82162 -0.0326599 0)
(9.79564 -0.0307115 0)
(9.77069 -0.0291801 0)
(9.74681 -0.0283562 0)
(9.92253 0.695097 0)
(9.85493 0.622044 0)
(9.75663 0.394305 0)
(9.62346 0.228978 0)
(9.4856 0.127686 0)
(9.3584 0.0688383 0)
(9.24455 0.0351271 0)
(9.14324 0.0156989 0)
(9.05353 0.00437493 0)
(8.97445 -0.0023079 0)
(8.9044 -0.00624614 0)
(8.84208 -0.00859334 0)
(8.78625 -0.0099698 0)
(8.73602 -0.0107867 0)
(8.6905 -0.0113064 0)
(8.64907 -0.0115824 0)
(8.6108 -0.0117913 0)
(8.5754 -0.0124316 0)
(0.00666216 -0.0152455 -8.43907e-19)
(0.0190435 -0.0190496 6.39754e-19)
(0.0272645 -0.0128753 0)
(0.0303723 -0.00361153 0)
(0.027355 0.00505611 0)
(0.0194658 0.0115687 -2.83877e-19)
(0.00794162 0.0158463 0)
(-0.00618255 0.0183903 0)
(-0.022152 0.0198265 0)
(-0.039497 0.0206613 0)
(-0.0578967 0.0212064 1.51223e-19)
(-0.0771626 0.0216294 0)
(-0.0971831 0.022005 0)
(-0.117889 0.0223551 0)
(-0.139233 0.0226705 0)
(-0.161179 0.0229275 9.83394e-20)
(-0.183689 0.0230957 0)
(-0.206732 0.0231438 0)
(-0.230291 0.0230484 0)
(-0.254375 0.0228177 0)
(-0.279017 0.0225223 0)
(-0.304307 0.0223103 0)
(-0.33037 0.0221369 0)
(-0.357185 0.0219901 6.97109e-20)
(-0.384516 0.0227021 -6.69886e-20)
(-0.412231 0.0239687 6.41394e-20)
(-0.440173 0.0246901 6.14306e-20)
(-0.467931 0.0272936 0)
(-0.496022 0.0349457 0)
(-0.526224 0.0448645 -5.74881e-20)
(-0.559133 0.054005 -5.76003e-20)
(-0.593837 0.0589515 0)
(-0.63005 0.0601904 0)
(-0.666069 0.0714354 -5.72632e-20)
(-0.704174 0.0957257 0)
(-0.747123 0.070369 0)
(-0.786282 0.023252 7.90229e-20)
(-0.815353 0.0298475 0)
(-0.851323 0.0340667 7.3729e-20)
(-0.88961 0.0345122 1.42529e-19)
(-0.927999 0.0349718 0)
(-0.967095 0.0352214 0)
(-1.00648 0.035283 0)
(-1.04603 0.035208 0)
(-1.08565 0.0350526 0)
(-1.12529 0.0348444 1.19042e-19)
(-1.1649 0.0346045 1.15947e-19)
(-1.20446 0.0343435 1.13034e-19)
(-1.24396 0.0340684 0)
(-1.28337 0.0337839 -1.07702e-19)
(-1.32268 0.0334918 0)
(-1.36188 0.0331935 1.02938e-19)
(-1.40096 0.0328892 1.00741e-19)
(-1.4399 0.0325786 0)
(-1.47869 0.0322606 0)
(-1.51731 0.0319338 0)
(-1.55575 0.0315971 9.29645e-20)
(-1.59399 0.0312489 0)
(-1.632 0.0308878 0)
(-1.66977 0.0305117 0)
(-1.70727 0.0301199 0)
(-1.74446 0.0297106 0)
(-1.78132 0.0292826 0)
(-1.81782 0.0288341 0)
(-1.85393 0.0283644 0)
(-1.88961 0.027872 -7.96733e-20)
(-1.92483 0.0273565 0)
(-1.95954 0.0268167 0)
(-1.99371 0.0262524 7.6107e-20)
(-2.02729 0.0256627 7.49852e-20)
(-2.06025 0.0250475 0)
(-2.09254 0.0244059 -7.28277e-20)
(-2.12412 0.0237379 7.17869e-20)
(-2.15494 0.0230428 0)
(-2.18495 0.022321 -6.97687e-20)
(-2.21411 0.0215717 0)
(-2.24237 0.0207957 0)
(-2.26969 0.0199923 6.68688e-20)
(-2.296 0.0191614 0)
(-2.32126 0.0183012 -6.49971e-20)
(-2.34543 0.0174112 0)
(-2.36844 0.0164888 6.31565e-20)
(-2.39025 0.0155312 6.22433e-20)
(-2.41081 0.0145333 6.13321e-20)
(-2.43005 0.0134902 1.20844e-19)
(-2.44792 0.0123938 -1.1902e-19)
(-2.46435 0.0112358 0)
(-2.47928 0.0100063 0)
(-2.49263 0.00869777 0)
(-2.50432 0.007307 -1.11645e-19)
(-2.51428 0.00584388 -1.0977e-19)
(-2.52241 0.00434267 1.07883e-19)
(-2.52859 0.00285923 0)
(-2.53268 0.00145714 -1.04068e-19)
(-2.53457 0.000217286 -1.02073e-19)
(-2.53477 -0.000895637 -1.0003e-19)
(-2.53322 -0.00197674 0)
(-2.52996 -0.00304759 0)
(-2.52498 -0.00412032 0)
(-2.51827 -0.00519585 -9.133e-20)
(-2.50981 -0.00627364 0)
(-2.49958 -0.00735302 0)
(-2.48758 -0.00843268 8.41342e-20)
(-2.47381 -0.00951123 0)
(-2.45824 -0.0105871 0)
(-2.4409 -0.0116585 7.62448e-20)
(-2.42177 -0.0127236 0)
(-2.40087 -0.0137799 0)
(-2.37822 -0.0148257 -6.75552e-20)
(-2.35384 -0.0158575 -6.44632e-20)
(-2.32773 -0.0168738 0)
(-2.29994 -0.0178707 5.7964e-20)
(-2.2705 -0.0188468 0)
(-2.23944 -0.0197979 -5.10226e-20)
(-2.2068 -0.020723 0)
(-2.17264 -0.0216172 -4.36139e-20)
(-2.13701 -0.0224797 -3.97275e-20)
(-2.09995 -0.0233054 0)
(-2.06155 -0.024094 0)
(-2.02184 -0.0248411 0)
(-1.98091 -0.0255474 0)
(-1.93882 -0.0262099 0)
(-1.89564 -0.0268316 0)
(-1.85145 -0.0274095 0)
(-1.80634 -0.0279452 -3.96757e-21)
(-1.76038 -0.0284283 -1.11035e-21)
(-1.71367 -0.0288618 0)
(-1.66629 -0.0292418 0)
(-1.61832 -0.0295703 0)
(-1.56985 -0.0298388 0)
(-1.52097 -0.0300505 -5.71512e-20)
(-1.47177 -0.0301995 0)
(-1.42235 -0.0302881 8.10494e-20)
(-1.37279 -0.0303127 -9.34037e-20)
(-1.32318 -0.0302753 0)
(-1.27362 -0.0301744 0)
(-1.22419 -0.0300098 0)
(-1.17496 -0.0297799 1.45453e-19)
(-1.12601 -0.0294843 1.59118e-19)
(-1.07741 -0.0291296 0)
(-1.02925 -0.0287226 1.87221e-19)
(-0.981594 -0.028272 2.0165e-19)
(-0.934485 -0.0277812 -2.16324e-19)
(-0.887966 -0.0272524 0)
(-0.842072 -0.0266865 0)
(-0.796834 -0.0260882 -2.61786e-19)
(-0.752273 -0.0254613 0)
(-0.708402 -0.0248124 0)
(-0.665224 -0.0241448 0)
(-0.622733 -0.023465 0)
(-0.580912 -0.0227785 3.42393e-19)
(-0.539735 -0.0220956 3.59298e-19)
(-0.499164 -0.021421 0)
(-0.45915 -0.0207632 3.94034e-19)
(-0.419634 -0.0201294 0)
(-0.380546 -0.0195311 0)
(-0.341804 -0.0189739 4.49005e-19)
(-0.303315 -0.0184698 0)
(-0.264976 -0.0180324 4.88267e-19)
(-0.226669 -0.0176716 0)
(-0.188279 -0.0173942 0)
(-0.149649 -0.0172404 5.53182e-19)
(-0.11062 -0.0172535 0)
(-0.0710736 -0.0174276 6.02538e-19)
(-0.0309584 -0.0177048 0)
(0.0099144 -0.0178986 0)
(0.0506461 -0.0176 0)
(0.0915228 -0.0171526 -6.45246e-19)
(0.133768 -0.0170431 0)
(0.177613 -0.0172267 6.16041e-19)
(0.223473 -0.0176481 0)
(0.271668 -0.0182475 0)
(0.322464 -0.018983 0)
(0.375985 -0.0198023 0)
(0.432269 -0.020623 0)
(0.490807 -0.0212959 0)
(0.551698 -0.0214931 0)
(0.609763 -0.020729 -1.04439e-18)
(0.673567 -0.0169071 0)
(0.682707 0.00338217 0)
(0.00495992 -0.0383373 1.88277e-18)
(0.00793076 -0.028763 -9.60259e-19)
(0.00533088 -0.0114635 0)
(-0.000482088 0.00506748 2.89628e-19)
(-0.00894828 0.0193837 0)
(-0.0199482 0.0309479 1.0732e-19)
(-0.0333054 0.0397812 -1.94553e-19)
(-0.0488368 0.0462751 -1.78571e-19)
(-0.0662795 0.0509771 0)
(-0.0853506 0.0544173 -1.53435e-19)
(-0.105801 0.0570191 -7.1708e-20)
(-0.127434 0.0590823 0)
(-0.150107 0.0608025 0)
(-0.173727 0.0622988 0)
(-0.198239 0.0636406 0)
(-0.223622 0.064868 -5.48311e-20)
(-0.249874 0.0660064 0)
(-0.277016 0.0670758 1.01554e-19)
(-0.305081 0.0680979 0)
(-0.334104 0.0691038 0)
(-0.364112 0.0701394 -9.29423e-20)
(-0.395115 0.0712665 0)
(-0.427095 0.0725414 8.85069e-20)
(-0.460084 0.0739516 -4.32306e-20)
(-0.494112 0.0754166 4.22605e-20)
(-0.529202 0.076782 -4.13317e-20)
(-0.565703 0.0778699 -4.04882e-20)
(-0.603947 0.0789766 0)
(-0.643458 0.0806059 0)
(-0.683409 0.0824718 3.9253e-20)
(-0.723152 0.0837973 -3.88634e-20)
(-0.763165 0.0843254 0)
(-0.803724 0.0844545 0)
(-0.844892 0.0848578 3.97303e-20)
(-0.882666 0.0863533 0)
(-0.920828 0.0869993 0)
(-0.962289 0.0872376 -3.91838e-20)
(-1.00532 0.0890715 0)
(-1.04525 0.090339 3.6959e-20)
(-1.08354 0.0907225 -7.25908e-20)
(-1.12121 0.0905674 0)
(-1.15843 0.0901392 0)
(-1.1953 0.0895162 -1.35354e-19)
(-1.2319 0.0887638 -1.32529e-19)
(-1.26825 0.0879237 -1.29847e-19)
(-1.30437 0.0870262 6.34852e-20)
(-1.34027 0.0860903 -6.2597e-20)
(-1.37594 0.0851286 -1.83994e-19)
(-1.4114 0.0841481 1.20345e-19)
(-1.44662 0.083153 5.92756e-20)
(-1.48162 0.0821446 0)
(-1.51638 0.0811229 -5.72914e-20)
(-1.55089 0.0800868 5.60433e-20)
(-1.58514 0.0790344 0)
(-1.61912 0.0779631 0)
(-1.65281 0.0768699 0)
(-1.68619 0.0757518 -5.29546e-20)
(-1.71924 0.0746058 0)
(-1.75195 0.073429 1.02536e-19)
(-1.78429 0.0722183 0)
(-1.81623 0.0709713 9.96494e-20)
(-1.84776 0.0696854 0)
(-1.87883 0.0683585 -9.6917e-20)
(-1.90943 0.0669882 0)
(-1.93953 0.0655728 9.43152e-20)
(-1.96909 0.0641103 -4.6394e-20)
(-1.99808 0.0626 0)
(-2.02646 0.0610404 -9.06115e-20)
(-2.05422 0.0594314 -4.48352e-20)
(-2.0813 0.0577719 -4.42453e-20)
(-2.10768 0.056062 0)
(-2.13332 0.054301 -4.28591e-20)
(-2.15817 0.0524892 -4.25177e-20)
(-2.18221 0.0506264 0)
(-2.2054 0.0487131 4.13909e-20)
(-2.2277 0.0467495 -8.14695e-20)
(-2.24906 0.0447373 0)
(-2.26945 0.0426769 -3.9719e-20)
(-2.28883 0.0405697 0)
(-2.30716 0.0384157 1.15662e-19)
(-2.32439 0.0362163 0)
(-2.34049 0.033972 -1.12322e-19)
(-2.35542 0.0316839 -3.69194e-20)
(-2.36914 0.0293519 3.62407e-20)
(-2.38161 0.0269769 7.1356e-20)
(-2.3928 0.0245586 -7.02193e-20)
(-2.40266 0.0220968 0)
(-2.41118 0.0195892 0)
(-2.41832 0.0170326 0)
(-2.42407 0.0144206 1.96672e-19)
(-2.42844 0.0117479 6.43229e-20)
(-2.43145 0.00902107 -6.30577e-20)
(-2.43315 0.00627032 0)
(-2.43365 0.00355327 -6.05281e-20)
(-2.43304 0.000945851 5.90926e-20)
(-2.43093 -0.00155924 5.77006e-20)
(-2.42724 -0.00402089 0)
(-2.4219 -0.00645701 0)
(-2.41489 -0.00887628 0)
(-2.40618 -0.0112791 5.1838e-20)
(-2.39577 -0.0136625 0)
(-2.38363 -0.0160226 -9.77727e-20)
(-2.36975 -0.0183545 -1.41683e-19)
(-2.35413 -0.0206538 9.13227e-20)
(-2.33677 -0.0229159 0)
(-2.31767 -0.0251361 4.2541e-20)
(-2.29684 -0.0273099 0)
(-2.27428 -0.029432 7.7525e-20)
(-2.25002 -0.0314979 -3.72534e-20)
(-2.22407 -0.0335021 -3.54113e-20)
(-2.19645 -0.03544 0)
(-2.16721 -0.0373058 -9.33232e-20)
(-2.13636 -0.0390956 5.84986e-20)
(-2.10396 -0.0408034 2.68136e-20)
(-2.07004 -0.0424262 0)
(-2.03465 -0.0439584 2.26127e-20)
(-1.99785 -0.0453974 6.23036e-20)
(-1.95969 -0.0467383 0)
(-1.92025 -0.0479788 3.30727e-20)
(-1.87958 -0.0491137 2.85803e-20)
(-1.83774 -0.0501424 2.40212e-20)
(-1.79481 -0.0510644 0)
(-1.75087 -0.0518899 0)
(-1.706 -0.0526137 0)
(-1.66027 -0.0532241 -3.1783e-21)
(-1.61378 -0.0537242 4.11965e-22)
(-1.5666 -0.0541299 0)
(-1.51883 -0.0544312 9.42219e-21)
(-1.47054 -0.0546277 1.43605e-20)
(-1.42181 -0.0547162 0)
(-1.37275 -0.0547012 2.55461e-20)
(-1.32344 -0.0545801 5.85893e-20)
(-1.27396 -0.054358 -3.55393e-20)
(-1.22441 -0.0540345 -3.80399e-20)
(-1.17487 -0.0536157 0)
(-1.12542 -0.0531042 0)
(-1.07615 -0.052505 0)
(-1.02712 -0.0518196 -6.03215e-20)
(-0.978397 -0.0510533 6.28056e-20)
(-0.930053 -0.0502149 1.37697e-19)
(-0.882152 -0.0493192 -7.48056e-20)
(-0.834755 -0.0483797 7.72795e-20)
(-0.787911 -0.0474088 8.42021e-20)
(-0.741653 -0.0464113 0)
(-0.696011 -0.0453954 0)
(-0.651003 -0.044366 -9.57662e-20)
(-0.606641 -0.0433346 0)
(-0.562928 -0.0423077 0)
(-0.519855 -0.041297 2.19371e-19)
(-0.477405 -0.0403078 0)
(-0.435547 -0.0393535 1.17e-19)
(-0.394243 -0.0384411 -1.22476e-19)
(-0.353442 -0.0375838 0)
(-0.313079 -0.0367862 1.28502e-19)
(-0.27308 -0.036064 0)
(-0.233359 -0.0354231 0)
(-0.193812 -0.0348755 -1.40078e-19)
(-0.154324 -0.034427 2.85524e-19)
(-0.114767 -0.034098 -1.4635e-19)
(-0.0749984 -0.0338904 0)
(-0.0348648 -0.0338116 0)
(0.005809 -0.0338643 1.54398e-19)
(0.0469855 -0.0339779 0)
(0.0888814 -0.0341491 1.55755e-19)
(0.131876 -0.0344291 0)
(0.176299 -0.0347354 0)
(0.222563 -0.0350969 0)
(0.270944 -0.0357138 1.55407e-19)
(0.321496 -0.0366655 0)
(0.374359 -0.0379037 -1.55238e-19)
(0.429728 -0.0393712 0)
(0.487769 -0.0409939 0)
(0.548579 -0.042694 3.10228e-19)
(0.612131 -0.0443687 -3.10832e-19)
(0.678282 -0.0458737 0)
(0.746504 -0.0469524 0)
(0.816421 -0.0470472 0)
(0.884471 -0.0452552 9.57525e-19)
(0.95516 -0.0383056 0)
(0.997123 -0.0150746 -6.70727e-19)
(-0.00211091 -0.0407893 -9.96893e-22)
(-0.0076394 -0.0174667 9.13913e-19)
(-0.0162991 0.00557777 0)
(-0.0271896 0.025921 -3.63991e-19)
(-0.0396281 0.0435203 0)
(-0.0533465 0.0583987 0)
(-0.0684228 0.0706408 2.0896e-23)
(-0.0849676 0.0804792 1.13105e-19)
(-0.103009 0.0882801 1.06533e-19)
(-0.122499 0.0944683 1.01022e-19)
(-0.143343 0.0994535 0)
(-0.165438 0.103584 0)
(-0.188687 0.107131 -8.81119e-20)
(-0.213014 0.110293 -1.69435e-19)
(-0.238368 0.113214 1.63389e-19)
(-0.264723 0.115993 0)
(-0.292067 0.118704 1.53253e-19)
(-0.320404 0.1214 -7.44917e-20)
(-0.349746 0.124125 0)
(-0.380104 0.126904 1.41987e-19)
(-0.411475 0.129751 6.94535e-20)
(-0.443843 0.132651 -1.36297e-19)
(-0.477155 0.135569 -6.67802e-20)
(-0.511296 0.138424 0)
(-0.546151 0.141128 1.28187e-19)
(-0.58166 0.143606 1.25333e-19)
(-0.617818 0.145842 0)
(-0.654538 0.148118 1.19949e-19)
(-0.69145 0.150721 0)
(-0.728059 0.153365 1.15727e-19)
(-0.764126 0.15554 5.71008e-20)
(-0.79975 0.156788 0)
(-0.834973 0.157183 0)
(-0.869568 0.157397 0)
(-0.902937 0.156808 0)
(-0.936136 0.153946 0)
(-0.970538 0.150269 0)
(-1.00553 0.148392 1.00655e-19)
(-1.03985 0.146994 -1.47814e-19)
(-1.07348 0.145575 0)
(-1.10669 0.144132 0)
(-1.13958 0.142644 0)
(-1.1722 0.141105 1.67202e-22)
(-1.20461 0.139521 8.92287e-20)
(-1.23684 0.137904 1.75015e-19)
(-1.26889 0.136262 -1.7188e-19)
(-1.30079 0.134602 -8.43544e-20)
(-1.33254 0.132928 8.30834e-20)
(-1.36413 0.131242 -1.70897e-22)
(-1.39556 0.129543 8.01984e-20)
(-1.42683 0.12783 0)
(-1.45793 0.126099 7.7679e-20)
(-1.48884 0.124347 -1.73654e-22)
(-1.51956 0.12257 0)
(-1.55007 0.120762 0)
(-1.58036 0.118919 -7.31235e-20)
(-1.6104 0.117036 0)
(-1.64017 0.115109 0)
(-1.66967 0.113133 6.98746e-20)
(-1.69886 0.111103 1.38143e-19)
(-1.72772 0.109017 -6.82884e-20)
(-1.75622 0.10687 0)
(-1.78434 0.104659 6.64444e-20)
(-1.81206 0.102381 0)
(-1.83934 0.100035 6.43549e-20)
(-1.86615 0.0976164 6.38058e-20)
(-1.89247 0.0951252 -1.25606e-19)
(-1.91825 0.0925596 -6.18185e-20)
(-1.94348 0.0899191 0)
(-1.96811 0.0872025 1.20646e-19)
(-1.99211 0.08441 0)
(-2.01544 0.0815409 1.76264e-19)
(-2.03807 0.0785958 1.15827e-19)
(-2.05996 0.0755747 1.14241e-19)
(-2.08108 0.0724787 -1.1266e-19)
(-2.10139 0.0693084 1.66734e-19)
(-2.12085 0.0660656 0)
(-2.13941 0.0627515 0)
(-2.15705 0.0593677 -1.0635e-19)
(-2.17372 0.0559155 -1.57231e-19)
(-2.18939 0.0523967 0)
(-2.20401 0.0488129 5.08549e-20)
(-2.21755 0.0451661 0)
(-2.22998 0.0414582 -1.47547e-19)
(-2.24125 0.037692 -9.39884e-23)
(-2.25133 0.0338703 7.78016e-23)
(-2.2602 0.0299975 9.33453e-20)
(-2.26782 0.0260784 0)
(-2.27418 0.0221202 -8.99232e-20)
(-2.27925 0.0181322 -7.45027e-24)
(-2.28302 0.0141285 0)
(-2.28549 0.0101296 0)
(-2.28663 0.00615833 0)
(-2.2864 0.00222808 8.08133e-20)
(-2.28473 -0.00168385 0)
(-2.28156 -0.00559578 0)
(-2.27683 -0.00949719 0)
(-2.27052 -0.0133815 0)
(-2.2626 -0.017244 0)
(-2.25304 -0.0210787 6.87517e-20)
(-2.24182 -0.0248787 0)
(-2.22895 -0.0286366 6.41746e-20)
(-2.21439 -0.0323446 6.19286e-20)
(-2.19815 -0.0359948 -5.96428e-20)
(-2.18023 -0.0395794 0)
(-2.16064 -0.0430908 -5.49496e-20)
(-2.13936 -0.0465208 0)
(-2.11643 -0.0498615 -5.00928e-20)
(-2.09185 -0.0531044 4.76032e-20)
(-2.06564 -0.0562417 1.361e-19)
(-2.03784 -0.0592649 0)
(-2.00847 -0.0621664 1.20658e-19)
(-1.97755 -0.0649379 3.82663e-20)
(-1.94515 -0.0675725 0)
(-1.91129 -0.0700627 6.47971e-20)
(-1.87603 -0.0724024 5.93338e-20)
(-1.83942 -0.0745856 -8.01151e-20)
(-1.80151 -0.0766071 0)
(-1.76238 -0.0784613 -2.0655e-20)
(-1.72208 -0.0801432 -1.7789e-20)
(-1.68067 -0.0816491 -4.60266e-20)
(-1.63824 -0.082979 0)
(-1.59485 -0.0841413 0)
(-1.5506 -0.0851433 0)
(-1.50555 -0.0859684 -4.60541e-21)
(-1.45978 -0.0866128 0)
(-1.41338 -0.0870938 0)
(-1.36643 -0.087411 -5.69983e-21)
(-1.31901 -0.08756 -8.65524e-21)
(-1.27121 -0.0875406 0)
(-1.2231 -0.0873555 0)
(-1.17478 -0.0870063 -3.49216e-20)
(-1.12632 -0.0864981 0)
(-1.07781 -0.0858353 4.6484e-20)
(-1.02932 -0.0850256 5.07015e-20)
(-0.980946 -0.0840759 0)
(-0.932748 -0.0829943 0)
(-0.884792 -0.0817872 -6.74633e-20)
(-0.837138 -0.0804641 -1.42185e-21)
(-0.789845 -0.0790394 -1.39751e-21)
(-0.742969 -0.0775329 0)
(-0.696563 -0.0759643 -1.78775e-19)
(-0.650669 -0.0743513 0)
(-0.605317 -0.0727049 0)
(-0.560525 -0.0710383 0)
(-0.516307 -0.069362 1.09555e-19)
(-0.472665 -0.067692 0)
(-0.429594 -0.0660407 -2.34929e-19)
(-0.387075 -0.0644242 -1.22869e-19)
(-0.345082 -0.0628534 0)
(-0.303577 -0.0613458 -1.31054e-19)
(-0.262511 -0.0599147 0)
(-0.221824 -0.0585772 0)
(-0.181445 -0.0573435 -4.25094e-19)
(-0.141286 -0.0562337 2.89823e-19)
(-0.101253 -0.0552602 0)
(-0.0612343 -0.054439 3.02841e-19)
(-0.0211031 -0.053779 -1.55038e-19)
(0.0192635 -0.0532944 0)
(0.0599765 -0.0529813 0)
(0.101225 -0.0528587 0)
(0.143226 -0.0529303 -4.83147e-19)
(0.186185 -0.0532102 0)
(0.230344 -0.0537266 -1.62664e-19)
(0.27592 -0.0544748 0)
(0.323187 -0.0554124 0)
(0.372473 -0.0565688 0)
(0.42405 -0.0580404 0)
(0.478035 -0.0598717 0)
(0.534551 -0.0620363 0)
(0.593716 -0.0644692 -3.32472e-19)
(0.655625 -0.0670774 0)
(0.720307 -0.0697497 -1.68404e-19)
(0.78769 -0.0723338 5.07705e-19)
(0.857579 -0.0746053 0)
(0.929476 -0.0761911 0)
(1.00297 -0.0763692 -3.48274e-19)
(1.07548 -0.073907 -3.5475e-19)
(1.15081 -0.0653881 3.60661e-19)
(1.21025 -0.0420562 3.73534e-19)
(-0.00833579 -0.0246008 -2.83689e-18)
(-0.0190875 0.00660903 -1.09001e-18)
(-0.0317197 0.0323304 -3.93255e-19)
(-0.0462927 0.0543656 -1.41157e-19)
(-0.0617904 0.0735407 0)
(-0.0778947 0.0901749 2.04501e-19)
(-0.0947477 0.104427 -9.34491e-20)
(-0.112537 0.116471 0)
(-0.13139 0.126553 -8.25553e-20)
(-0.151372 0.134982 0)
(-0.172496 0.142089 1.50893e-19)
(-0.19474 0.148188 0)
(-0.218064 0.153548 7.00004e-20)
(-0.242421 0.158389 1.35398e-19)
(-0.267765 0.162881 -1.31246e-19)
(-0.294056 0.167148 0)
(-0.321257 0.171279 -1.241e-19)
(-0.349332 0.175332 0)
(-0.378244 0.179338 0)
(-0.407947 0.183305 -1.15648e-19)
(-0.438379 0.187211 0)
(-0.469456 0.191007 -7.18476e-23)
(-0.501065 0.194611 0)
(-0.533061 0.197918 0)
(-0.565294 0.200829 1.23312e-23)
(-0.597645 0.203278 -1.01656e-19)
(-0.630021 0.205267 -9.92415e-20)
(-0.662318 0.206905 -9.69042e-20)
(-0.694363 0.208299 0)
(-0.725973 0.209382 -1.8511e-19)
(-0.757083 0.209987 0)
(-0.787755 0.209997 -8.86151e-20)
(-0.81808 0.209443 0)
(-0.84805 0.208417 0)
(-0.877661 0.206708 8.31851e-20)
(-0.907254 0.204136 0)
(-0.937167 0.201194 -7.96727e-20)
(-0.967256 0.198583 -5.92288e-23)
(-0.997217 0.196196 1.52908e-19)
(-1.02698 0.193895 -1.49809e-19)
(-1.05656 0.191645 0)
(-1.08598 0.189421 0)
(-1.11527 0.187207 -7.0668e-20)
(-1.14443 0.184997 0)
(-1.17349 0.182786 -6.83067e-20)
(-1.20244 0.180572 6.71353e-20)
(-1.23131 0.178354 6.60098e-20)
(-1.26007 0.176129 0)
(-1.28874 0.173894 -6.3884e-20)
(-1.3173 0.171644 -6.2878e-20)
(-1.34575 0.169375 1.23659e-19)
(-1.37408 0.16708 -6.09665e-20)
(-1.40228 0.164753 -6.00562e-20)
(-1.43032 0.162389 0)
(-1.45821 0.15998 0)